<<<<<<< HEAD
# LAMMPS data file written by OVITO Basic 3.11.0

20288 atoms
6 atom types

0.0 66.7084 xlo xhi
0.0 66.7744 ylo yhi
0.0 67.0736 zlo zhi

Masses

1 1.00794  # H
2 6.941  # Li
3 12.0107  # C
4 15.9994  # O
5 18.9984032  # F
6 30.973761  # P

Atoms  # atomic

1 1 1.1523177497 3.3833234449 13.2408956768
2 1 2.2121451901 3.5057919912 14.6965295813
3 1 1.3598767446 1.7612696259 15.5796125464
4 1 0.3738379417 3.0349805885 16.2415279544
5 1 -0.3381935503 1.9871516415 14.9741186068
6 1 2.3381195717 7.771997423 13.3810193731
7 1 3.0086202657 7.8929099652 15.0329545201
8 1 1.5813386047 8.8960362204 14.5812634134
9 1 14.677315431 11.6343119104 5.5691218383
10 1 14.3725048455 13.3553732033 5.8081889717
11 1 12.2546726443 11.7272193143 6.3633734885
12 1 11.8727945671 12.8265305255 5.0303811726
13 1 12.4261693968 11.1997903554 4.6949218329
14 1 14.8354791539 15.0686825382 0.6535176455
15 1 16.3406180649 14.0837587939 0.7160891597
16 1 16.0304352786 15.3334257964 1.9717220584
17 1 12.605656282 7.6184582638 8.0089006099
18 1 13.3223966129 6.7895201931 9.3891724426
19 1 11.6813352618 5.5819296373 8.1158857686
20 1 11.0689535869 5.6246518639 9.671349021
21 1 10.4263444544 6.7533470503 8.4104496079
22 1 14.5809979714 11.267551963 11.0294446091
23 1 13.087352641 12.3076193855 11.0347714015
24 1 13.7992452344 11.6773507871 9.4772714713
25 1 8.8851802697 1.7393320686 8.1851818073
26 1 9.6131930094 0.9905435583 6.7127796972
27 1 9.797020297 3.0937813821 6.063537647
28 1 8.1066430391 2.8680384505 5.4136629696
29 1 8.4218050316 3.7119489018 6.9819025322
30 1 3.6730553838 -0.3089289432 8.2309459927
31 1 4.0315604104 1.0065881389 7.0469639899
32 1 4.3082024748 1.3008955643 8.8067289865
33 1 10.0485888528 9.4014732505 4.6330065748
34 1 8.6710899847 8.3888433091 5.0866439077
35 1 9.710618683 9.861890508 6.8978754382
36 1 9.3405026552 8.1982721882 7.3466289164
37 1 11.0413658804 8.6944572745 7.0037171762
38 1 9.1134244127 3.957998753 3.5313445852
39 1 10.836660278 3.5579128452 3.3745484028
40 1 10.097991999 4.6332819147 2.1776568739
41 1 14.2412479147 6.0355620441 11.80765324
42 1 15.0049184521 5.5401336237 13.3685195908
43 1 13.6452069237 3.6857526058 12.8561317585
44 1 12.4548069556 4.5923425591 13.7487647296
45 1 12.4670120019 4.6368149391 11.9415640754
46 1 13.8474981803 10.6395870311 15.5907378896
47 1 13.6999220393 10.8101326292 13.8009446258
48 1 15.2505672926 10.2772812515 14.5460112619
49 1 6.0406148515 3.5897360182 5.4805039141
50 1 4.5584381144 4.5884098735 5.6787357798
51 1 5.2739265607 4.3484653735 3.2249934025
52 1 5.6164303428 6.0723664837 3.7587729034
53 1 6.9274368607 4.868924134 3.690958362
54 1 5.5446305278 7.3613920535 9.7092775423
55 1 7.3558107514 7.1558917001 9.8467928968
56 1 6.290664896 5.7169425302 9.8598085835
57 1 5.0021372518 7.552622295 13.7321680742
58 1 5.3203409246 6.313341711 14.9958289406
59 1 5.8158315065 6.0069946202 13.3042054987
60 1 10.927651851 8.2213087906 13.5604282145
61 1 10.4229905088 6.4922345942 13.4657705173
62 1 10.0342251841 7.6093087634 12.1167790316
63 1 8.24093671 14.0146996734 3.2476852882
64 1 9.7864848252 13.0998414829 3.4378843421
65 1 9.7079136292 14.4486421215 2.2473853801
66 1 13.0081826146 16.103390397 5.8070031256
67 1 12.2295961592 17.55980239 6.5666465069
68 1 11.9480588546 15.9040169595 7.2479661075
69 1 3.4227541149 3.6571568654 1.7302320837
70 1 1.6556551989 3.2360078949 1.6168935997
71 1 2.3841679456 3.5961714757 3.2109532115
72 1 -0.6074731366 7.9027746748 0.778337038
73 1 -0.7824470333 6.4610678533 -0.2104565634
74 1 -1.3518494715 6.4171632119 1.4747176969
75 1 10.4453432667 16.5076665969 12.409925264
76 1 9.7575010834 0.7343034952 11.0111340784
77 1 11.4568478022 17.7386154659 11.5546845773
78 1 11.5265711419 12.4584329132 8.3850303606
79 1 10.5027005848 12.2215482633 9.8559980583
80 1 9.8851040419 13.1987985474 8.4496862448
81 1 6.0626006647 10.9794377514 5.136582149
82 1 6.4270086194 9.2912375046 5.7079226403
83 1 7.3707527925 10.7008152215 6.318380895
84 1 1.8250235482 10.9090699667 8.9325782264
85 1 1.762276535 10.7443971607 7.1159384609
86 1 1.8932856893 9.2705531204 8.1514409768
87 1 12.3756445569 14.3535733367 15.5287276649
88 1 12.6564488998 12.6856861551 14.9034531054
89 1 12.3416326733 12.956383052 16.6678277311
90 1 8.9873171392 13.2075390796 12.0668366621
91 1 8.8951864452 11.5110252931 12.5782388128
92 1 7.447419899 12.6242849885 12.8019923354
93 1 0.3665610752 5.4034932988 6.8486517638
94 1 1.0134036123 3.9501870973 7.6405938382
95 1 1.9489415468 4.6857403657 6.2771574629
96 1 1.13864047 7.2142641434 11.3221146222
97 1 2.8643881743 6.8505904766 11.7071975264
98 1 2.3837489713 8.4631767154 11.0892502019
99 1 2.5076227131 2.6728072633 11.3034673815
100 1 2.3351282086 3.3088134887 9.6490179908
101 1 2.7910064225 4.4191102817 10.9812881395
102 1 8.281339597 2.9757236282 11.1072239922
103 1 7.4160597016 4.1076903782 12.1957361242
104 1 7.2215114457 2.324524145 12.4247872102
105 1 4.3304038991 12.62354224 9.3467346077
106 1 4.7596829856 14.3478133805 9.6979110131
107 1 6.5689342724 12.0142760147 9.0239807062
108 1 7.0923742629 13.5993622358 9.7271774986
109 1 16.4805922464 16.5756098515 7.0534813212
110 1 16.6728308487 15.2366920702 5.8423657987
111 1 15.3102168899 17.9231132739 5.6012360257
112 1 15.1998523115 16.6054741971 4.3799200882
113 1 -0.2323571379 15.9631830348 11.4698054286
114 1 -1.7879539054 15.2059286706 11.9125136869
115 1 -0.9252191151 15.6777933558 9.2380946718
116 1 -1.9211824007 14.2259544599 9.5394164387
117 1 11.1758788845 9.7393113113 -0.3791582092
118 1 9.900371546 8.6932345114 0.3464354562
119 1 12.1529448553 10.1505855656 1.7794717814
120 1 11.0671855818 8.8949402654 2.4344158084
121 1 4.2170994039 8.1378072483 17.9943750868
122 1 3.5695682196 9.516876492 18.9721326797
123 1 6.2078384257 8.3827310243 19.3499602008
124 1 5.9426194715 10.1410733941 2.8705020404
125 1 -1.2690741459 8.4774289197 6.490249389
126 1 0.073154999 7.5167907344 5.7871886883
127 1 -2.6742512219 7.89389799 4.5929606145
128 1 -1.3746298078 6.7521348099 4.0869871673
129 1 11.9158206342 4.2914062267 -1.1990876405
130 1 10.7003223053 3.5074548913 -0.100567494
131 1 13.5741158372 3.6197126681 0.6263806663
132 1 12.2148104163 3.4840349266 1.7775150603
133 1 5.7277312995 1.2965923488 3.8467650094
134 1 7.1199238986 0.3134836309 4.3931901796
135 1 5.4463800076 -0.3180205246 2.0796571985
136 1 7.0322366993 -1.0587101105 2.4289547355
137 1 1.944136634 14.6890927596 3.8480389915
138 1 3.6259695322 14.1576092802 4.3163316399
139 1 1.7579282164 12.3960905585 2.7913198865
140 1 3.4272289516 12.1298018922 3.3432697236
141 1 3.658561705 16.2454470303 14.3832555859
142 1 4.3877676757 17.8730155371 14.1550919762
143 1 5.629016528 15.9223509165 15.8919406488
144 1 6.4164649751 17.3731325569 15.1502461174
145 2 7.9686543467 12.3669418347 15.9888927245
146 2 5.2687418997 3.4187651876 8.7147063298
147 3 1.1729526603 3.5014218761 14.3512023725
148 3 0.5601920323 2.4970802196 15.2935872277
149 3 1.7417042425 5.7590029533 14.316116928
150 3 2.076102234 7.9230783768 14.4286105538
151 3 14.0096725756 12.4620593579 5.2897462017
152 3 12.5789590604 12.0620058993 5.358061198
153 3 15.0575601728 13.4334464087 3.3706723602
154 3 15.5617564024 14.5858587246 1.3129375695
155 3 12.4001669644 7.2309892792 9.0203689023
156 3 11.3258661207 6.311483389 8.8590771542
157 3 13.0041730347 9.4286240422 9.6605349825
158 3 13.6048824899 11.4721944705 10.540216359
159 3 8.7673547726 1.5770176822 7.09455387
160 3 8.7440148492 2.9012894858 6.3163893613
161 3 6.5828861552 0.9926591255 7.620641267
162 3 4.3167970266 0.5537086324 8.0172853305
163 3 9.7541174673 8.5370982438 5.2648585858
164 3 9.9979420874 8.8161291214 6.7118741098
165 3 9.7310984067 6.567185945 3.9773140667
166 3 10.0878166335 4.3541411583 3.2437963584
167 3 14.0644438956 5.8204305071 12.8726898506
168 3 13.1031155527 4.6399249061 12.8461439609
169 3 14.3991792267 8.0164359209 13.8288033903
170 3 14.1541841116 10.216975123 14.6165576755
171 3 5.5952660892 4.5904482994 5.3131520809
172 3 5.8548169865 4.9992269427 3.888935857
173 3 5.9693039977 5.6706890674 7.4612955249
174 3 6.4230500708 6.7292564405 9.472673301
175 3 7.852276293 7.2493504159 13.3868695577
176 3 5.7048540251 6.7678066801 14.0761597682
177 3 10.1629836549 7.5241287037 13.2099236818
178 3 10.9160281385 15.3167239044 4.5209266707
179 3 9.332528127 14.0716471436 3.2087985799
180 3 12.1188179461 16.4847335691 6.3281914521
181 3 0.7950330164 5.3062761097 1.8826406067
182 3 2.4130419782 3.8415246459 2.1353572189
183 3 -0.595200904 6.8163827381 0.8056571572
184 3 10.5663974414 14.9498427318 10.2109086138
185 3 10.6768346464 16.9762929831 11.4352333676
186 3 10.7685778772 12.9172650985 9.0377403692
187 3 4.2027232176 10.3793869531 6.9112575503
188 3 6.3805555332 10.3638008801 5.995418142
189 3 2.1604217714 10.3440874361 8.0563176547
190 3 10.3260555475 12.9544706776 14.2047522997
191 3 12.1563573627 13.2904000495 15.6563941128
192 3 8.5301901769 12.5272459973 12.7916725536
193 3 1.4295103278 6.3053807129 9.0007844869
194 3 1.2926133276 4.889803489 7.1364316551
195 3 2.1826947711 7.3880290203 11.0237053859
196 3 5.076536845 3.2952235303 11.3095106308
197 3 2.8758023311 3.4089656363 10.5805374279
198 3 7.367789465 3.1303557457 11.6846396394
199 3 4.9667473586 13.4737188699 9.0538455189
200 3 6.4653802068 13.097292671 8.9847637297
201 3 5.7869641501 13.8063846979 6.9147944809
202 3 16.7281392387 16.3230562393 6.0072693429
203 3 15.8673850729 17.1686668557 5.0458594092
204 3 18.1111511309 17.6778307567 4.7995904716
205 3 -0.8704461224 15.0835697209 11.3500910306
206 3 -1.026848173 14.7829273106 9.8495233178
207 3 0.5686907862 13.4035701448 10.8250373421
208 3 10.4586024098 9.6377389445 0.4480494741
209 3 11.1122078102 9.8168963511 1.8350060758
210 3 9.3424731677 11.17699595 1.7130966014
211 3 4.4114470805 9.1728261058 18.3484041962
212 3 5.786294209 9.3072955232 18.9298152862
213 3 5.8201233216 10.3239432666 16.8399441021
214 3 -0.71113635 8.2426718212 5.5652909842
215 3 -1.6054077057 7.7746710715 4.3887890029
216 3 -0.3003478954 9.5897491115 3.7608278205
217 3 11.5071480163 4.2683490013 -0.1815961715
218 3 12.5618197188 4.0151897281 0.898281836
219 3 12.1195037371 6.3343976186 0.7823069573
220 3 6.6608966515 0.811576257 3.5416225996
221 3 6.481476974 -0.1150246318 2.3268495358
222 3 7.6965513462 1.7254438542 1.7611571647
223 3 2.8799685666 14.213541904 3.5106108751
224 3 2.7478760014 12.8324184964 2.8329734163
225 3 3.7453279101 14.2270807386 1.4182035703
226 3 4.5800901692 16.8031401448 14.1285530402
227 3 5.8191275641 16.4678460356 14.9652063442
228 3 6.0252806882 15.566377759 12.9067350586
229 4 0.7623650411 4.8822443947 14.6011059235
230 4 1.177232399 6.9097886248 14.7586645739
231 4 2.9123657486 5.6340688401 13.9087994177
232 4 14.1219559603 12.6575092689 3.8828324931
233 4 14.7802845796 13.5572006606 2.0555720649
234 4 16.0051901828 13.945858228 3.959034961
235 4 12.1621468032 8.3954323012 9.8373625426
236 4 12.7156262808 10.3088101736 10.6616808097
237 4 13.9124754182 9.5891159113 8.8328517095
238 4 7.6770083804 0.609216539 6.9644292843
239 4 5.6678429169 0.0239720501 7.8202360142
240 4 6.3430080124 2.1697374735 7.9209108055
241 4 10.4080700028 7.4371142205 4.7699971929
242 4 10.4633342661 5.4755841076 4.0833852556
243 4 8.7598211702 6.749263844 3.2342295794
244 4 13.5570243986 6.9877450173 13.540657902
245 4 13.6557549613 8.8627564811 14.5999029679
246 4 15.5393753427 8.2658664187 13.5096152919
247 4 6.3953683039 5.500339706 6.1867470554
248 4 6.6463921369 6.636239941 8.0568842722
249 4 5.0592735884 4.9936993131 7.9692282396
250 4 6.9691201512 7.3609289053 14.3878160499
251 4 8.9498019673 7.8888343388 13.9028511524
252 4 7.6942025741 6.6902359623 12.2891742782
253 4 9.6525276494 15.0080740508 4.2933552862
254 4 10.9227796195 16.3174210414 5.4690717344
255 4 11.8702337337 14.7523502088 4.0049204978
256 4 2.1516819028 5.1945357616 1.902927782
257 4 0.72043519 6.4795247914 1.1955988134
258 4 -0.0593462769 4.5609860161 2.3511899981
259 4 11.2484495305 16.0321915366 10.5211500523
260 4 11.4127845256 14.1042384499 9.5733297428
261 4 9.3764918418 14.759793566 10.4074086502
262 4 5.5299178684 10.5571231847 7.1255452546
263 4 3.58720488 10.4741746532 8.0860909731
264 4 3.6984937355 10.1781496163 5.8337726722
265 4 10.6762709147 13.094008758 15.4811361685
266 4 8.9332056411 12.9115988744 14.1821455567
267 4 11.0699146801 12.7731921128 13.2469182129
268 4 2.0838251973 5.6727024504 8.0275662768
269 4 2.4466221725 6.9277218926 9.6929223619
270 4 0.205861826 6.3493298098 9.1788679663
271 4 4.2391508296 3.1142548861 10.2665569336
272 4 6.2875928291 3.1127024826 10.7383471465
273 4 4.8289991526 3.4971839072 12.472138516
274 4 4.6308676386 13.7839284398 7.6520919058
275 4 6.9091556066 13.5037655395 7.635832905
276 4 5.7841213522 13.9357898733 5.7066399049
277 4 18.1177118117 16.7417478095 5.7775045389
278 4 16.8743919737 17.8462953963 4.2459425759
279 4 19.1258412848 18.2576459118 4.4570431291
280 4 -0.1481223085 13.9260185878 11.8894415199
281 4 0.1321512714 13.9085676516 9.6114582874
282 4 1.4503893884 12.5963997118 10.9203050699
283 4 9.4603749306 10.740993605 0.4130553297
284 4 10.3252166114 10.8311454851 2.5939729113
285 4 8.3346570992 11.7315237258 2.0799834396
286 4 4.5035253822 10.1149771876 17.1621157788
287 4 6.5719572864 9.5755453082 17.6798938621
288 4 6.296789576 11.0051207074 15.8948547794
289 4 -0.0474877386 9.4705788496 5.1061862494
290 4 -1.2405823064 8.6848948208 3.3006282727
291 4 0.2832118984 10.3734508767 3.0388945336
292 4 10.9982283006 5.7480430224 0.1987558593
293 4 -3.7575503248 5.3568461705 1.4406765219
294 4 12.4032362406 7.4910559022 1.0521626095
295 4 7.5540407541 1.8305877568 3.0912530905
296 4 7.0691986043 0.6537544923 1.2753835373
297 4 8.3644414823 2.4947051297 1.1133145104
298 4 3.4313906698 15.019516234 2.448735716
299 4 3.2214198096 12.9890361509 1.4977187714
300 4 4.5126429754 14.5938588346 0.5813818985
301 4 4.9382885597 16.4016306808 12.7888310008
302 4 6.5838903828 15.6199010823 14.1015764985
303 4 6.3917156105 14.8804697821 11.9774161236
304 5 11.9600200261 -0.2606162865 14.5651194197
305 5 14.2408086798 1.8990724776 15.6304917526
306 5 11.8070376575 1.3949014801 16.1692368534
307 5 13.53708259 0.0447459828 16.7083372886
308 5 12.546631406 1.8403108541 14.0191109872
309 5 14.204499297 -0.1256606831 14.5023734631
310 5 12.8130928273 3.6642379494 7.869168172
311 5 15.4515775594 2.9522077598 9.6538250732
312 5 14.3450008216 1.7894602843 8.1599721194
313 5 14.8954024672 4.0104806053 7.4125006649
314 5 13.3531586773 2.6474907366 10.0572703014
315 5 13.8306319131 4.8290289923 9.4543220993
316 6 13.0534805589 0.7946868498 15.208049748
317 6 14.1215089467 3.3168443784 8.783349232
318 1 1.1523177497 3.3833234449 30.0092956768
319 1 2.2121451901 3.5057919912 31.4649295813
320 1 1.3598767446 1.7612696259 32.3480125464
321 1 0.3738379417 3.0349805885 33.0099279544
322 1 -0.3381935503 1.9871516415 31.7425186068
323 1 2.3381195717 7.771997423 30.1494193731
324 1 3.0086202657 7.8929099652 31.8013545201
325 1 1.5813386047 8.8960362204 31.3496634134
326 1 14.677315431 11.6343119104 22.3375218383
327 1 14.3725048455 13.3553732033 22.5765889717
328 1 12.2546726443 11.7272193143 23.1317734885
329 1 11.8727945671 12.8265305255 21.7987811726
330 1 12.4261693968 11.1997903554 21.4633218329
331 1 14.8354791539 15.0686825382 17.4219176455
332 1 16.3406180649 14.0837587939 17.4844891597
333 1 16.0304352786 15.3334257964 18.7401220584
334 1 12.605656282 7.6184582638 24.7773006099
335 1 13.3223966129 6.7895201931 26.1575724426
336 1 11.6813352618 5.5819296373 24.8842857686
337 1 11.0689535869 5.6246518639 26.439749021
338 1 10.4263444544 6.7533470503 25.1788496079
339 1 14.5809979714 11.267551963 27.7978446091
340 1 13.087352641 12.3076193855 27.8031714015
341 1 13.7992452344 11.6773507871 26.2456714713
342 1 8.8851802697 1.7393320686 24.9535818073
343 1 9.6131930094 0.9905435583 23.4811796972
344 1 9.797020297 3.0937813821 22.831937647
345 1 8.1066430391 2.8680384505 22.1820629696
346 1 8.4218050316 3.7119489018 23.7503025322
347 1 3.6730553838 -0.3089289432 24.9993459927
348 1 4.0315604104 1.0065881389 23.8153639899
349 1 4.3082024748 1.3008955643 25.5751289865
350 1 10.0485888528 9.4014732505 21.4014065748
351 1 8.6710899847 8.3888433091 21.8550439077
352 1 9.710618683 9.861890508 23.6662754382
353 1 9.3405026552 8.1982721882 24.1150289164
354 1 11.0413658804 8.6944572745 23.7721171762
355 1 9.1134244127 3.957998753 20.2997445852
356 1 10.836660278 3.5579128452 20.1429484028
357 1 10.097991999 4.6332819147 18.9460568739
358 1 14.2412479147 6.0355620441 28.57605324
359 1 15.0049184521 5.5401336237 30.1369195908
360 1 13.6452069237 3.6857526058 29.6245317585
361 1 12.4548069556 4.5923425591 30.5171647296
362 1 12.4670120019 4.6368149391 28.7099640754
363 1 13.8474981803 10.6395870311 32.3591378896
364 1 13.6999220393 10.8101326292 30.5693446258
365 1 15.2505672926 10.2772812515 31.3144112619
366 1 6.0406148515 3.5897360182 22.2489039141
367 1 4.5584381144 4.5884098735 22.4471357798
368 1 5.2739265607 4.3484653735 19.9933934025
369 1 5.6164303428 6.0723664837 20.5271729034
370 1 6.9274368607 4.868924134 20.459358362
371 1 5.5446305278 7.3613920535 26.4776775423
372 1 7.3558107514 7.1558917001 26.6151928968
373 1 6.290664896 5.7169425302 26.6282085835
374 1 5.0021372518 7.552622295 30.5005680742
375 1 5.3203409246 6.313341711 31.7642289406
376 1 5.8158315065 6.0069946202 30.0726054987
377 1 10.927651851 8.2213087906 30.3288282145
378 1 10.4229905088 6.4922345942 30.2341705173
379 1 10.0342251841 7.6093087634 28.8851790316
380 1 8.24093671 14.0146996734 20.0160852882
381 1 9.7864848252 13.0998414829 20.2062843421
382 1 9.7079136292 14.4486421215 19.0157853801
383 1 13.0081826146 16.103390397 22.5754031256
384 1 12.2295961592 17.55980239 23.3350465069
385 1 11.9480588546 15.9040169595 24.0163661075
386 1 3.4227541149 3.6571568654 18.4986320837
387 1 1.6556551989 3.2360078949 18.3852935997
388 1 2.3841679456 3.5961714757 19.9793532115
389 1 -0.6074731366 7.9027746748 17.546737038
390 1 -0.7824470333 6.4610678533 16.5579434366
391 1 -1.3518494715 6.4171632119 18.2431176969
392 1 10.4453432667 16.5076665969 29.178325264
393 1 9.7575010834 0.7343034952 27.7795340784
394 1 11.4568478022 17.7386154659 28.3230845773
395 1 11.5265711419 12.4584329132 25.1534303606
396 1 10.5027005848 12.2215482633 26.6243980583
397 1 9.8851040419 13.1987985474 25.2180862448
398 1 6.0626006647 10.9794377514 21.904982149
399 1 6.4270086194 9.2912375046 22.4763226403
400 1 7.3707527925 10.7008152215 23.086780895
401 1 1.8250235482 10.9090699667 25.7009782264
402 1 1.762276535 10.7443971607 23.8843384609
403 1 1.8932856893 9.2705531204 24.9198409768
404 1 12.3756445569 14.3535733367 32.2971276649
405 1 12.6564488998 12.6856861551 31.6718531054
406 1 12.3416326733 12.956383052 33.4362277311
407 1 8.9873171392 13.2075390796 28.8352366621
408 1 8.8951864452 11.5110252931 29.3466388128
409 1 7.447419899 12.6242849885 29.5703923354
410 1 0.3665610752 5.4034932988 23.6170517638
411 1 1.0134036123 3.9501870973 24.4089938382
412 1 1.9489415468 4.6857403657 23.0455574629
413 1 1.13864047 7.2142641434 28.0905146222
414 1 2.8643881743 6.8505904766 28.4755975264
415 1 2.3837489713 8.4631767154 27.8576502019
416 1 2.5076227131 2.6728072633 28.0718673815
417 1 2.3351282086 3.3088134887 26.4174179908
418 1 2.7910064225 4.4191102817 27.7496881395
419 1 8.281339597 2.9757236282 27.8756239922
420 1 7.4160597016 4.1076903782 28.9641361242
421 1 7.2215114457 2.324524145 29.1931872102
422 1 4.3304038991 12.62354224 26.1151346077
423 1 4.7596829856 14.3478133805 26.4663110131
424 1 6.5689342724 12.0142760147 25.7923807062
425 1 7.0923742629 13.5993622358 26.4955774986
426 1 16.4805922464 16.5756098515 23.8218813212
427 1 16.6728308487 15.2366920702 22.6107657987
428 1 15.3102168899 17.9231132739 22.3696360257
429 1 15.1998523115 16.6054741971 21.1483200882
430 1 -0.2323571379 15.9631830348 28.2382054286
431 1 -1.7879539054 15.2059286706 28.6809136869
432 1 -0.9252191151 15.6777933558 26.0064946718
433 1 -1.9211824007 14.2259544599 26.3078164387
434 1 11.1758788845 9.7393113113 16.3892417908
435 1 9.900371546 8.6932345114 17.1148354562
436 1 12.1529448553 10.1505855656 18.5478717814
437 1 11.0671855818 8.8949402654 19.2028158084
438 1 4.2170994039 8.1378072483 34.7627750868
439 1 3.5695682196 9.516876492 35.7405326797
440 1 6.2078384257 8.3827310243 36.1183602008
441 1 5.9426194715 10.1410733941 19.6389020404
442 1 -1.2690741459 8.4774289197 23.258649389
443 1 0.073154999 7.5167907344 22.5555886883
444 1 -2.6742512219 7.89389799 21.3613606145
445 1 -1.3746298078 6.7521348099 20.8553871673
446 1 11.9158206342 4.2914062267 15.5693123595
447 1 10.7003223053 3.5074548913 16.667832506
448 1 13.5741158372 3.6197126681 17.3947806663
449 1 12.2148104163 3.4840349266 18.5459150603
450 1 5.7277312995 1.2965923488 20.6151650094
451 1 7.1199238986 0.3134836309 21.1615901796
452 1 5.4463800076 -0.3180205246 18.8480571985
453 1 7.0322366993 -1.0587101105 19.1973547355
454 1 1.944136634 14.6890927596 20.6164389915
455 1 3.6259695322 14.1576092802 21.0847316399
456 1 1.7579282164 12.3960905585 19.5597198865
457 1 3.4272289516 12.1298018922 20.1116697236
458 1 3.658561705 16.2454470303 31.1516555859
459 1 4.3877676757 17.8730155371 30.9234919762
460 1 5.629016528 15.9223509165 32.6603406488
461 1 6.4164649751 17.3731325569 31.9186461174
462 2 7.9686543467 12.3669418347 32.7572927245
463 2 5.2687418997 3.4187651876 25.4831063298
464 3 1.1729526603 3.5014218761 31.1196023725
465 3 0.5601920323 2.4970802196 32.0619872277
466 3 1.7417042425 5.7590029533 31.084516928
467 3 2.076102234 7.9230783768 31.1970105538
468 3 14.0096725756 12.4620593579 22.0581462017
469 3 12.5789590604 12.0620058993 22.126461198
470 3 15.0575601728 13.4334464087 20.1390723602
471 3 15.5617564024 14.5858587246 18.0813375695
472 3 12.4001669644 7.2309892792 25.7887689023
473 3 11.3258661207 6.311483389 25.6274771542
474 3 13.0041730347 9.4286240422 26.4289349825
475 3 13.6048824899 11.4721944705 27.308616359
476 3 8.7673547726 1.5770176822 23.86295387
477 3 8.7440148492 2.9012894858 23.0847893613
478 3 6.5828861552 0.9926591255 24.389041267
479 3 4.3167970266 0.5537086324 24.7856853305
480 3 9.7541174673 8.5370982438 22.0332585858
481 3 9.9979420874 8.8161291214 23.4802741098
482 3 9.7310984067 6.567185945 20.7457140667
483 3 10.0878166335 4.3541411583 20.0121963584
484 3 14.0644438956 5.8204305071 29.6410898506
485 3 13.1031155527 4.6399249061 29.6145439609
486 3 14.3991792267 8.0164359209 30.5972033903
487 3 14.1541841116 10.216975123 31.3849576755
488 3 5.5952660892 4.5904482994 22.0815520809
489 3 5.8548169865 4.9992269427 20.657335857
490 3 5.9693039977 5.6706890674 24.2296955249
491 3 6.4230500708 6.7292564405 26.241073301
492 3 7.852276293 7.2493504159 30.1552695577
493 3 5.7048540251 6.7678066801 30.8445597682
494 3 10.1629836549 7.5241287037 29.9783236818
495 3 10.9160281385 15.3167239044 21.2893266707
496 3 9.332528127 14.0716471436 19.9771985799
497 3 12.1188179461 16.4847335691 23.0965914521
498 3 0.7950330164 5.3062761097 18.6510406067
499 3 2.4130419782 3.8415246459 18.9037572189
500 3 -0.595200904 6.8163827381 17.5740571572
501 3 10.5663974414 14.9498427318 26.9793086138
502 3 10.6768346464 16.9762929831 28.2036333676
503 3 10.7685778772 12.9172650985 25.8061403692
504 3 4.2027232176 10.3793869531 23.6796575503
505 3 6.3805555332 10.3638008801 22.763818142
506 3 2.1604217714 10.3440874361 24.8247176547
507 3 10.3260555475 12.9544706776 30.9731522997
508 3 12.1563573627 13.2904000495 32.4247941128
509 3 8.5301901769 12.5272459973 29.5600725536
510 3 1.4295103278 6.3053807129 25.7691844869
511 3 1.2926133276 4.889803489 23.9048316551
512 3 2.1826947711 7.3880290203 27.7921053859
513 3 5.076536845 3.2952235303 28.0779106308
514 3 2.8758023311 3.4089656363 27.3489374279
515 3 7.367789465 3.1303557457 28.4530396394
516 3 4.9667473586 13.4737188699 25.8222455189
517 3 6.4653802068 13.097292671 25.7531637297
518 3 5.7869641501 13.8063846979 23.6831944809
519 3 16.7281392387 16.3230562393 22.7756693429
520 3 15.8673850729 17.1686668557 21.8142594092
521 3 18.1111511309 17.6778307567 21.5679904716
522 3 -0.8704461224 15.0835697209 28.1184910306
523 3 -1.026848173 14.7829273106 26.6179233178
524 3 0.5686907862 13.4035701448 27.5934373421
525 3 10.4586024098 9.6377389445 17.2164494741
526 3 11.1122078102 9.8168963511 18.6034060758
527 3 9.3424731677 11.17699595 18.4814966014
528 3 4.4114470805 9.1728261058 35.1168041962
529 3 5.786294209 9.3072955232 35.6982152862
530 3 5.8201233216 10.3239432666 33.6083441021
531 3 -0.71113635 8.2426718212 22.3336909842
532 3 -1.6054077057 7.7746710715 21.1571890029
533 3 -0.3003478954 9.5897491115 20.5292278205
534 3 11.5071480163 4.2683490013 16.5868038285
535 3 12.5618197188 4.0151897281 17.666681836
536 3 12.1195037371 6.3343976186 17.5507069573
537 3 6.6608966515 0.811576257 20.3100225996
538 3 6.481476974 -0.1150246318 19.0952495358
539 3 7.6965513462 1.7254438542 18.5295571647
540 3 2.8799685666 14.213541904 20.2790108751
541 3 2.7478760014 12.8324184964 19.6013734163
542 3 3.7453279101 14.2270807386 18.1866035703
543 3 4.5800901692 16.8031401448 30.8969530402
544 3 5.8191275641 16.4678460356 31.7336063442
545 3 6.0252806882 15.566377759 29.6751350586
546 4 0.7623650411 4.8822443947 31.3695059235
547 4 1.177232399 6.9097886248 31.5270645739
548 4 2.9123657486 5.6340688401 30.6771994177
549 4 14.1219559603 12.6575092689 20.6512324931
550 4 14.7802845796 13.5572006606 18.8239720649
551 4 16.0051901828 13.945858228 20.727434961
552 4 12.1621468032 8.3954323012 26.6057625426
553 4 12.7156262808 10.3088101736 27.4300808097
554 4 13.9124754182 9.5891159113 25.6012517095
555 4 7.6770083804 0.609216539 23.7328292843
556 4 5.6678429169 0.0239720501 24.5886360142
557 4 6.3430080124 2.1697374735 24.6893108055
558 4 10.4080700028 7.4371142205 21.5383971929
559 4 10.4633342661 5.4755841076 20.8517852556
560 4 8.7598211702 6.749263844 20.0026295794
561 4 13.5570243986 6.9877450173 30.309057902
562 4 13.6557549613 8.8627564811 31.3683029679
563 4 15.5393753427 8.2658664187 30.2780152919
564 4 6.3953683039 5.500339706 22.9551470554
565 4 6.6463921369 6.636239941 24.8252842722
566 4 5.0592735884 4.9936993131 24.7376282396
567 4 6.9691201512 7.3609289053 31.1562160499
568 4 8.9498019673 7.8888343388 30.6712511524
569 4 7.6942025741 6.6902359623 29.0575742782
570 4 9.6525276494 15.0080740508 21.0617552862
571 4 10.9227796195 16.3174210414 22.2374717344
572 4 11.8702337337 14.7523502088 20.7733204978
573 4 2.1516819028 5.1945357616 18.671327782
574 4 0.72043519 6.4795247914 17.9639988134
575 4 -0.0593462769 4.5609860161 19.1195899981
576 4 11.2484495305 16.0321915366 27.2895500523
577 4 11.4127845256 14.1042384499 26.3417297428
578 4 9.3764918418 14.759793566 27.1758086502
579 4 5.5299178684 10.5571231847 23.8939452546
580 4 3.58720488 10.4741746532 24.8544909731
581 4 3.6984937355 10.1781496163 22.6021726722
582 4 10.6762709147 13.094008758 32.2495361685
583 4 8.9332056411 12.9115988744 30.9505455567
584 4 11.0699146801 12.7731921128 30.0153182129
585 4 2.0838251973 5.6727024504 24.7959662768
586 4 2.4466221725 6.9277218926 26.4613223619
587 4 0.205861826 6.3493298098 25.9472679663
588 4 4.2391508296 3.1142548861 27.0349569336
589 4 6.2875928291 3.1127024826 27.5067471465
590 4 4.8289991526 3.4971839072 29.240538516
591 4 4.6308676386 13.7839284398 24.4204919058
592 4 6.9091556066 13.5037655395 24.404232905
593 4 5.7841213522 13.9357898733 22.4750399049
594 4 18.1177118117 16.7417478095 22.5459045389
595 4 16.8743919737 17.8462953963 21.0143425759
596 4 19.1258412848 18.2576459118 21.2254431291
597 4 -0.1481223085 13.9260185878 28.6578415199
598 4 0.1321512714 13.9085676516 26.3798582874
599 4 1.4503893884 12.5963997118 27.6887050699
600 4 9.4603749306 10.740993605 17.1814553297
601 4 10.3252166114 10.8311454851 19.3623729113
602 4 8.3346570992 11.7315237258 18.8483834396
603 4 4.5035253822 10.1149771876 33.9305157788
604 4 6.5719572864 9.5755453082 34.4482938621
605 4 6.296789576 11.0051207074 32.6632547794
606 4 -0.0474877386 9.4705788496 21.8745862494
607 4 -1.2405823064 8.6848948208 20.0690282727
608 4 0.2832118984 10.3734508767 19.8072945336
609 4 10.9982283006 5.7480430224 16.9671558593
610 4 -3.7575503248 5.3568461705 18.2090765219
611 4 12.4032362406 7.4910559022 17.8205626095
612 4 7.5540407541 1.8305877568 19.8596530905
613 4 7.0691986043 0.6537544923 18.0437835373
614 4 8.3644414823 2.4947051297 17.8817145104
615 4 3.4313906698 15.019516234 19.217135716
616 4 3.2214198096 12.9890361509 18.2661187714
617 4 4.5126429754 14.5938588346 17.3497818985
618 4 4.9382885597 16.4016306808 29.5572310008
619 4 6.5838903828 15.6199010823 30.8699764985
620 4 6.3917156105 14.8804697821 28.7458161236
621 5 11.9600200261 -0.2606162865 31.3335194197
622 5 14.2408086798 1.8990724776 32.3988917526
623 5 11.8070376575 1.3949014801 32.9376368534
624 5 13.53708259 0.0447459828 33.4767372886
625 5 12.546631406 1.8403108541 30.7875109872
626 5 14.204499297 -0.1256606831 31.2707734631
627 5 12.8130928273 3.6642379494 24.637568172
628 5 15.4515775594 2.9522077598 26.4222250732
629 5 14.3450008216 1.7894602843 24.9283721194
630 5 14.8954024672 4.0104806053 24.1809006649
631 5 13.3531586773 2.6474907366 26.8256703014
632 5 13.8306319131 4.8290289923 26.2227220993
633 6 13.0534805589 0.7946868498 31.976449748
634 6 14.1215089467 3.3168443784 25.551749232
635 1 1.1523177497 3.3833234449 46.7776956768
636 1 2.2121451901 3.5057919912 48.2333295813
637 1 1.3598767446 1.7612696259 49.1164125464
638 1 0.3738379417 3.0349805885 49.7783279544
639 1 -0.3381935503 1.9871516415 48.5109186068
640 1 2.3381195717 7.771997423 46.9178193731
641 1 3.0086202657 7.8929099652 48.5697545201
642 1 1.5813386047 8.8960362204 48.1180634134
643 1 14.677315431 11.6343119104 39.1059218383
644 1 14.3725048455 13.3553732033 39.3449889717
645 1 12.2546726443 11.7272193143 39.9001734885