# LAMMPS data file written by OVITO Basic 3.13.0

19600 atoms
17850 bonds
28175 angles
18200 dihedrals
4200 impropers
18 atom types
25 bond types
42 angle types
34 dihedral types
3 improper types

136.8070031865 198.3129968135 xlo xhi
136.8070031865 198.3129968135 ylo yhi
136.8070031865 198.3129968135 zlo zhi

Masses

1 15.999  # O
2 12.011  # C
3 1.008  # H
4 1.008  # H
5 1.008  # H
6 12.011  # C
7 15.999  # O
8 15.999  # O
9 12.011  # C
10 1.008  # H
11 1.008  # H
12 1.008  # H
13 6.941  # Li
14 14.007  # N
15 32.066  # S
16 12.011  # C
17 18.998  # F
18 15.999  # O

Atoms  # full

7572 631 12 0.1088 146.1293836628 141.7023377603 139.4807676502 0 1 0
18991 1547 14 -0.66 141.3874398882 143.3577321162 142.0429279479 3 3 -1
15655 1305 7 -0.4956 143.7226320211 144.3004440812 137.810519689 0 -1 -1
10979 915 11 0.1088 137.5558334846 144.4517263642 142.3224809401 1 1 -1
8570 715 2 -0.0695 141.2316471575 138.1260927591 137.1895630487 3 0 0
15448 1288 4 0.1173 144.0254948919 137.7922328583 141.5436774472 3 0 2
7567 631 7 -0.4956 146.6941211076 144.094467974 142.3423637753 0 1 0
10977 915 9 -0.046 136.9861083718 143.8063580568 142.9994190721 1 1 -1
18995 1547 16 0.35 141.5623107272 141.2621120827 140.468785534 3 3 -1
10980 915 12 0.1088 137.6600159929 143.3452724231 143.6606724788 1 1 -1
17813 1468 18 -0.53 144.9410048155 142.3632822583 144.1704319197 0 1 2
2300 192 8 -0.3187 140.3308547195 136.8286821052 140.4521871895 1 -1 1
7570 631 10 0.1088 146.1867265666 143.4622446228 139.7085886853 0 1 0
15334 1278 10 0.1088 143.4842520949 138.9824308336 143.4027749141 0 0 1
8571 715 3 0.1173 142.0191603566 138.4457310398 137.817605202 3 0 0
15447 1288 3 0.1173 143.4381422687 138.3282761986 140.1751234075 3 0 2
18993 1547 15 1.02 140.6646835202 142.0174157083 141.9564097177 3 3 -1
15449 1288 5 0.1173 144.9619774205 138.8369285759 140.3670916025 3 0 2
19000 1547 17 -0.16 141.8266163365 142.2259759686 139.5517433178 3 3 -1
2294 192 2 -0.0695 138.5419463363 139.050419456 142.3854331867 1 -1 1
15658 1305 10 0.1088 142.2397426623 142.3256369583 137.2548482631 0 -1 -1
16995 1413 17 -0.16 137.5253626147 138.0628513388 139.6337232874 1 1 -2
16993 1413 17 -0.16 136.8823813492 139.9666444542 138.9942855537 1 1 -2
19001 1547 17 -0.16 142.6696240651 140.7409324642 140.8173083255 3 3 -1
7571 631 11 0.1088 145.2193618942 142.4946838269 140.8374306418 0 1 0
8573 715 5 0.1173 140.2271493509 138.2980113827 137.575001393 3 0 0
18999 1547 17 -0.16 140.8414378686 140.3168846357 139.8340032965 3 3 -1
18992 1547 15 1.02 141.8058861689 144.230468496 143.2585459212 3 3 -1
2295 192 3 0.1173 139.0198347479 139.170921154 143.3379510914 1 -1 1
9071 756 11 0.1088 138.0828729627 144.2444413959 140.0209922748 2 -1 0
2297 192 5 0.1173 137.6474522829 138.4511349759 142.4911722264 1 -1 1
18994 1547 18 -0.53 140.9812997641 141.1540926152 143.0672283595 3 3 -1
18996 1547 18 -0.53 139.3252058228 142.1565867295 141.5214813968 3 3 -1
2293 192 1 -0.3163 139.4280330459 138.5089331286 141.5336551805 1 -1 1
2296 192 4 0.1173 138.3361804572 140.0100659318 142.0854003592 1 -1 1
15659 1305 11 0.1088 143.6890822317 141.3936970658 137.4861051935 0 -1 -1
15451 1288 7 -0.4956 144.4390988089 137.6763682468 137.9098153082 3 0 2
15446 1288 2 -0.0695 144.3522344465 137.9228128882 140.5615699534 3 0 2
9072 756 12 0.1088 139.5577051381 143.7534067907 139.2983202613 2 -1 0
2298 192 6 0.5678 139.7230708936 137.1961438453 141.5681199466 1 -1 1
15333 1278 9 -0.046 142.9220684323 138.2203492478 143.82748895 0 0 1
13828 1153 4 0.1173 138.5553825695 140.7535056363 137.3356268575 2 1 0
7569 631 9 -0.046 146.1187876652 142.4768356241 140.2270277327 0 1 0
15332 1278 8 -0.3187 143.4984106339 136.9300794665 143.8119217123 0 0 1
15336 1278 12 0.1088 141.981365018 138.2976404244 143.2946217275 0 0 1
9069 756 9 -0.046 138.7637635912 144.494559357 139.2792991192 2 -1 0
8569 715 1 -0.3163 141.3442192907 136.8161203762 137.3888703761 3 0 0
18663 1525 15 1.02 139.6023343424 138.7202932101 146.1534455258 1 4 5
18664 1525 18 -0.53 139.3781718641 137.4765504477 145.4777336755 1 4 5
7245 604 9 -0.046 144.0214088327 138.2693590418 150.0278131731 -1 -1 -1
18670 1525 17 -0.16 140.0249802828 139.2301887399 148.8564811247 1 4 5
16499 1375 11 0.1088 142.5412993 141.4942988102 150.5795454073 1 1 0
17818 1468 17 -0.16 146.8040535626 140.9950924536 145.9551048092 0 1 2
16495 1375 7 -0.4956 141.0289301756 142.2463644554 147.4151268351 1 1 0
16497 1375 9 -0.046 142.6269136229 141.8591673688 149.6081445767 1 1 0
17817 1468 16 0.35 145.5660218585 140.5581932702 145.9489389041 0 1 2
18661 1525 14 -0.66 138.2833616888 139.457589383 146.2761103602 1 4 5
18662 1525 15 1.02 138.2212916874 140.9907995574 146.3962198629 1 4 5
18665 1525 16 0.35 140.0451990628 138.2537090742 147.9551251072 1 4 5
6062 506 2 -0.0695 139.7607070907 143.4975628839 151.7452101211 2 2 -1
16500 1375 12 0.1088 143.6078570879 142.2568960234 149.3355743623 1 1 0
7244 604 8 -0.3187 144.8874492447 138.2267408844 151.2239447067 -1 -1 -1
17812 1468 18 -0.53 143.1022012299 141.1821547762 145.2765031607 0 1 2
17806 1468 14 -0.66 144.3268407014 142.8172317024 146.5738005354 0 1 2
13514 1127 2 -0.0695 145.6533544772 143.987192793 150.791464139 -1 0 1
17819 1468 17 -0.16 145.31139258 140.0642220966 147.1629468063 0 1 2
13515 1127 3 0.1173 144.5676307726 143.7574655819 150.9909895103 -1 0 1
16494 1375 6 0.5678 140.9891075052 143.0443466563 148.3034088735 1 1 0
17820 1468 17 -0.16 145.4850701969 139.4994400823 145.2159465625 0 1 2
17808 1468 15 1.02 145.0949253549 144.2079239528 146.6636201211 0 1 2
16498 1375 10 0.1088 142.4466650836 140.9478505988 149.0004985122 1 1 0
7243 604 7 -0.4956 145.1473827379 140.4447573271 151.0668700277 -1 -1 -1
18669 1525 17 -0.16 141.2375221596 137.6952879002 148.014829714 1 4 5
16496 1375 8 -0.3187 141.7088631062 142.9277126301 149.4412236476 1 1 0
7247 604 11 0.1088 144.6845612786 138.5450828536 149.2423147141 -1 -1 -1
13513 1127 1 -0.3163 146.6204674387 143.6395178963 151.7496803892 -1 0 1
18668 1525 18 -0.53 139.0831753094 141.7454308058 145.5154079982 1 4 5
7242 604 6 0.5678 145.4860895182 139.3412075079 151.5980688169 -1 -1 -1
18666 1525 18 -0.53 140.7373143639 139.5369180426 145.7639801855 1 4 5
17807 1468 15 1.02 144.3820920189 141.8338428838 145.3744715041 0 1 2
5117 427 5 0.1173 138.4285645922 139.6668435128 151.1687742917 1 1 0
18671 1525 17 -0.16 139.180597901 137.3796960797 148.4651438797 1 4 5
13517 1127 5 0.1173 145.8990624457 143.5089293143 149.8598432198 -1 0 1
19506 1656 13 1.0 141.223267634 141.522845691 145.2188948616 1 1 4
5114 427 2 -0.0695 137.4808178536 139.4021442729 150.6860885566 1 1 0
16489 1375 1 -0.3163 140.289270463 144.2277763822 148.2270477336 1 1 0
18667 1525 18 -0.53 137.9339291134 141.3673956242 147.7330639912 1 4 5
6063 506 3 0.1173 140.2003310845 142.5978777363 151.3790325123 2 2 -1
7246 604 10 0.1088 143.6468719893 137.2506111855 149.7445500286 -1 -1 -1
15335 1278 11 0.1088 142.7159902995 138.5653840019 144.8241259781 0 0 1
5115 427 3 0.1173 137.6182531791 138.4916235009 150.092313283 1 1 0
14824 1236 4 0.1173 137.4970542194 143.702176173 149.1786000794 2 -2 1
4087 341 7 -0.4956 146.820240378 137.8181985917 146.644446098 0 1 2
17809 1468 18 -0.53 146.0853576919 144.2806299816 147.7609870687 0 1 2
4261 356 1 -0.3163 140.5051086007 137.9070151043 151.6746170545 0 0 1
16491 1375 3 0.1173 138.6068182493 143.9822998759 146.8071172284 1 1 0
6221 519 5 0.1173 146.8325652955 141.5926754731 148.3485085082 1 1 0
4262 356 2 -0.0695 139.4672465721 136.9324195258 151.9713321293 0 0 1
7248 604 12 0.1088 143.2063859267 139.0150914614 150.0618166174 -1 -1 -1
5116 427 4 0.1173 137.1604357376 140.2910407093 150.0985780047 1 1 0
6064 506 4 0.1173 139.5683445206 144.1609539216 150.8372966655 2 2 -1
18997 1547 18 -0.53 141.3258452609 143.7914711745 144.5405078894 3 3 -1
4272 356 12 0.1088 141.8896928545 140.5592474954 154.0938456519 0 0 1
2384 199 8 -0.3187 142.0490649743 142.3532308594 156.2123633161 1 0 -1
16744 1396 4 0.1173 137.2112570522 143.3697984973 156.5909334752 1 1 1
2792 233 8 -0.3187 145.4541114519 140.017522804 155.7727064232 1 1 0
15265 1273 1 -0.3163 139.1481398317 137.3754931775 157.8701621897 2 0 1
6068 506 8 -0.3187 137.0446507398 142.0268524917 153.630275943 2 2 -1
15272 1273 8 -0.3187 137.4366418187 137.2835217998 159.2564755677 2 0 1
7237 604 1 -0.3163 146.3238891029 139.272493506 152.6435389335 -1 -1 -1
15266 1273 2 -0.0695 139.7247620188 137.9173733318 156.6291441412 2 0 1
2790 233 6 0.5678 145.6084311661 139.068067493 156.741894152 1 1 0
2793 233 9 -0.046 145.6544583462 141.3650465291 156.1503054912 1 1 0
2381 199 5 0.1173 140.7463277122 140.1338869394 159.1647216707 1 0 -1
2385 199 9 -0.046 142.381468287 143.7307709728 155.896147196 1 0 -1
17023 1415 17 -0.16 146.8348075063 143.1125784681 157.9694141926 -2 0 2
17024 1415 17 -0.16 145.6955125317 143.8365460949 159.645239055 -2 0 2
15271 1273 7 -0.4956 137.4770294413 138.8414784378 157.6578299406 2 0 1
16742 1396 2 -0.0695 137.5960354141 144.1272447914 155.9013626529 1 1 1
4268 356 8 -0.3187 142.1004286018 139.4101549386 152.3520023033 0 0 1
2377 199 1 -0.3163 141.8283362744 140.4318501625 157.4881726668 1 0 -1
6065 506 5 0.1173 140.4013021266 144.1411720184 152.3097673067 2 2 -1
2382 199 6 0.5678 142.2973176637 141.7481583688 157.3837592825 1 0 -1
4269 356 9 -0.046 142.6606847783 140.1825796417 153.3925896303 0 0 1
4267 356 7 -0.4956 140.9475324367 138.162944213 153.8639219671 0 0 1
6066 506 6 0.5678 138.3117012506 142.0975591845 153.0456096359 2 2 -1
2383 199 7 -0.4956 142.9457572697 142.3891914685 158.2684720485 1 0 -1
4266 356 6 0.5678 141.1787488736 138.4406095572 152.6878036876 0 0 1
6061 506 1 -0.3163 138.4139281651 143.2162484274 152.2666396323 2 2 -1
2380 199 4 0.1173 142.4217728165 140.2789290288 159.5198698149 1 0 -1
15268 1273 4 0.1173 140.6449865589 137.5759056236 156.3289210734 2 0 1
2387 199 11 0.1088 143.2264638953 144.0471680954 156.5789109755 1 0 -1
17022 1415 16 0.35 146.4445723936 144.1646946251 158.6515911142 -2 0 2
16743 1396 3 0.1173 138.2566954962 143.5905826844 155.1948654284 1 1 1
15269 1273 5 0.1173 138.9858730158 137.817550397 155.8262345975 2 0 1
15270 1273 6 0.5678 137.9339216739 137.8657271364 158.2061441131 2 0 1
2794 233 10 0.1088 145.4819550551 142.1357275061 155.3389974817 1 1 0
7239 604 3 0.1173 146.3083131562 141.2182513468 153.2981971756 -1 -1 -1
2795 233 11 0.1088 146.6912382202 141.3856634463 156.5795472047 1 1 0
15267 1273 3 0.1173 139.8012967451 138.9699112023 156.5135556562 2 0 1
2796 233 12 0.1088 145.1021657258 141.6792729954 157.0403847408 1 1 0
6067 506 7 -0.4956 139.1930775718 141.227088118 153.2044661063 2 2 -1
2378 199 2 -0.0695 141.7630078172 139.8795288186 158.7784914095 1 0 -1
2791 233 7 -0.4956 146.1097666157 139.216846173 157.9077699158 1 1 0
2785 233 1 -0.3163 145.3067474133 137.8734377508 156.2875956342 1 1 0
6070 506 10 0.1088 137.2973192341 139.9199943158 154.1166601943 2 2 -1
4271 356 11 0.1088 143.4385840465 139.7823431388 154.0490961567 0 0 1
2379 199 3 0.1173 141.8250495248 138.8352123395 158.6165630258 1 0 -1
7238 604 2 -0.0695 147.0073662492 140.4477973957 153.0393094657 -1 -1 -1
2386 199 10 0.1088 142.7350507703 143.8163832712 154.8644833209 1 0 -1
4270 356 10 0.1088 143.2487611924 141.0518251572 153.1012220443 0 0 1
2388 199 12 0.1088 141.4442531481 144.3870098442 156.0002683144 1 0 -1
5398 450 10 0.1088 144.5079372179 138.8259079855 159.7847374148 0 0 0
4263 356 3 0.1173 138.7948813926 137.473911265 152.5889660023 0 0 1
13697 1142 5 0.1173 144.7591974952 142.1593153965 162.8541441453 1 0 0
5050 421 10 0.1088 136.9604548192 143.2792226072 165.5749741612 1 -1 2
16304 1359 8 -0.3187 138.3905665666 141.517483667 161.3940286165 0 1 -1
10399 867 7 -0.4956 140.950676209 139.0711315393 166.7351078397 1 0 0
5396 450 8 -0.3187 143.7866928748 137.5224261224 161.230599344 0 0 0
16298 1359 2 -0.0695 140.3963236579 138.7219081432 162.2208889993 0 1 -1
1697 142 5 0.1173 146.2927870419 139.6436747871 165.9975717806 0 -1 0
8714 727 2 -0.0695 140.0410594292 141.9792177327 165.3307892771 1 -2 0
13698 1142 6 0.5678 143.7166828064 141.5218068078 165.5534560509 1 0 0
5400 450 12 0.1088 144.9633937539 139.0271491664 161.3841642355 0 0 0
10395 867 3 0.1173 138.4914320457 139.4203710859 166.8256975645 1 0 0
13693 1142 1 -0.3163 143.9281189344 140.9459183997 164.3210342645 1 0 0
13695 1142 3 0.1173 143.5466704825 140.9515168767 162.2823260182 1 0 0
10398 867 6 0.5678 140.5124168699 138.1328851842 166.0169683295 1 0 0
1693 142 1 -0.3163 146.0916091587 137.7485031159 166.6747758298 0 -1 0
13699 1142 7 -0.4956 143.4574861695 142.711189901 165.6210470475 1 0 0
13696 1142 4 0.1173 142.9677560433 142.4085184019 163.2300304608 1 0 0
16297 1359 1 -0.3163 139.3683620345 139.5470524801 161.6160029755 0 1 -1
10401 867 9 -0.046 142.7599000274 137.8092312783 165.0759356051 1 0 0
16307 1359 11 0.1088 137.3345073814 143.009978986 162.1621553001 0 1 -1
16306 1359 10 0.1088 139.1533881406 143.3678295647 162.23446036 0 1 -1
8715 727 3 0.1173 139.2013654169 141.4382536034 165.008050816 1 -2 0
4306 359 10 0.1088 146.5297187184 143.3635084329 165.5638866772 0 0 0
8713 727 1 -0.3163 139.8304649639 142.4735972263 166.6307179763 1 -2 0
10400 867 8 -0.3187 141.3612640298 137.394956264 165.2571658061 1 0 0
10394 867 2 -0.0695 138.3413202268 138.2985065307 166.8898022058 1 0 0
10404 867 12 0.1088 142.9039883781 138.3789670944 164.1807382586 1 0 0
16308 1359 12 0.1088 138.170737292 143.4971567948 160.6631374754 0 1 -1
8717 727 5 0.1173 140.9223086906 141.2989374636 165.2866460496 1 -2 0
10396 867 4 0.1173 137.3156806931 138.0779749685 166.4942947847 1 0 0
16299 1359 3 0.1173 140.562303253 139.0236622423 163.2705740353 0 1 -1
13694 1142 2 -0.0695 143.7946027842 141.6378449691 163.1321335463 1 0 0
8719 727 7 -0.4956 141.1521067833 144.3793628869 166.3305263952 1 -2 0
8716 727 4 0.1173 140.0515449411 142.8049270702 164.5725852381 1 -2 0
16301 1359 5 0.1173 141.3472400709 138.8217679644 161.7022852886 0 1 -1
2951 246 11 0.1088 137.0829768036 138.8346085809 164.0703495757 0 1 -2
16300 1359 4 0.1173 140.0584597553 137.670467662 162.2974099507 0 1 -1
16305 1359 9 -0.046 138.2936505401 142.9117357607 161.6481565155 0 1 -1
13700 1142 8 -0.3187 143.8229076586 140.7207434695 166.6009896654 1 0 0
16302 1359 6 0.5678 139.5619995788 140.8778575268 161.5751877163 0 1 -1
5397 450 9 -0.046 144.8060471499 138.2599849524 160.6702138971 0 0 0
5399 450 11 0.1088 145.6839689178 137.5968881388 160.4234202534 0 0 0
8718 727 6 0.5678 140.2939101883 143.6769319797 166.9434795321 1 -2 0
16303 1359 7 -0.4956 140.6841842341 141.361614198 161.9203079114 0 1 -1
10393 867 1 -0.3163 139.3006359584 137.6073899198 166.0942047662 1 0 0
10402 867 10 0.1088 143.4129297219 136.9158998048 165.0000825037 1 0 0
1696 142 4 0.1173 146.837167751 138.5047260005 164.8775011329 0 -1 0
10403 867 11 0.1088 143.1561150565 138.1969243926 166.0071980397 1 0 0
1694 142 2 -0.0695 146.8084858188 138.7179416573 165.9191595387 0 -1 0
4304 359 8 -0.3187 146.6982421622 143.4533014925 167.4900897774 0 0 0
1779 149 3 0.1173 139.4609580638 139.7746510232 173.7648593876 0 0 0
4410 368 6 0.5678 137.805268053 137.4666275555 171.6735177307 1 2 2
14778 1232 6 0.5678 143.688826203 137.8349676338 171.9093304871 0 1 1
6159 514 3 0.1173 144.2741853525 142.1814716822 173.063777414 -2 -1 1
6162 514 6 0.5678 146.7752060198 143.2707255452 173.3453935988 -2 -1 1
8467 706 7 -0.4956 141.7490728535 142.8950771131 170.5459654695 1 0 0
14783 1232 11 0.1088 144.7999975712 138.9464619655 173.8102502205 0 1 1
8472 706 12 0.1088 140.1362935589 141.6587493067 168.9959357551 1 0 0
12491 1041 11 0.1088 146.8504688839 139.2752939241 169.5461936596 2 -1 0
14781 1232 9 -0.046 143.7568825498 138.6347697614 174.1671052696 0 1 1
12492 1041 12 0.1088 146.4792478148 141.0170733525 169.694272212 2 -1 0
13701 1142 9 -0.046 143.5988420971 141.2252712234 167.9114087907 1 0 0
13703 1142 11 0.1088 144.1102019447 142.1805373602 168.078638973 1 0 0
14784 1232 12 0.1088 143.7618736181 138.4138786227 175.1776395804 0 1 1
14780 1232 8 -0.3187 143.4748230253 137.5793499917 173.2327692353 0 1 1
6157 514 1 -0.3163 146.3177569885 142.5010100343 172.3127323797 -2 -1 1
1781 149 5 0.1173 139.0191125441 138.1272200385 174.126190681 0 0 0
14779 1232 7 -0.4956 144.1392174988 138.9097210345 171.4908537146 0 1 1
14782 1232 10 0.1088 143.0536117186 139.4605578504 174.0472521215 0 1 1
4406 368 2 -0.0695 140.0564767578 137.0212158963 170.9126947801 1 2 2
8468 706 8 -0.3187 139.8879533616 141.7733937392 171.0337944208 1 0 0
8470 706 10 0.1088 138.9997843242 140.5103724298 169.7310443756 1 0 0
1778 149 2 -0.0695 139.8435223394 138.8976845778 174.2533788235 0 0 0
4409 368 5 0.1173 140.795317816 137.5774722602 171.5406358094 1 2 2
14530 1211 10 0.1088 137.4978080213 143.6809676556 168.0771319897 1 1 1
12490 1041 10 0.1088 146.5134642107 140.0459091499 171.1598383306 2 -1 0
14777 1232 5 0.1173 144.6135514064 137.6354586994 169.5821417225 0 1 1
8461 706 1 -0.3163 140.7888696959 143.1210639527 172.6182198631 1 0 0
8466 706 6 0.5678 140.9087682846 142.5711081791 171.3387902696 1 0 0
8464 706 4 0.1173 142.6472527561 143.827936851 173.3159245812 1 0 0
1780 149 4 0.1173 140.7351834974 138.480113811 173.8249177168 0 0 0
6160 514 4 0.1173 144.4712775697 143.226938609 171.6952141013 -2 -1 1
8469 706 9 -0.046 139.8982780662 141.0135410023 169.8451817268 1 0 0
4297 359 1 -0.3163 145.4106135374 144.3441313673 169.0382876901 0 0 0
8471 706 11 0.1088 140.7056647263 140.2230659795 169.9162643183 1 0 0
4302 359 6 0.5678 145.616283181 144.2135632986 167.7683069806 0 0 0
12489 1041 9 -0.046 146.932871832 140.1742920134 170.1591969424 2 -1 0
10397 867 5 0.1173 138.4313270247 138.1450341369 167.9923490271 1 0 0
6158 514 2 -0.0695 144.8990519856 142.3079357797 172.1358456162 -2 -1 1
8462 706 2 -0.0695 141.6913878052 144.1718895309 173.0395094509 1 0 0
13704 1142 12 0.1088 144.196315923 140.513785666 168.4943829239 1 0 0
14527 1211 7 -0.4956 136.9964800946 141.3621775616 168.1590088259 1 1 1
6161 514 5 0.1173 144.6516189942 141.4807006593 171.4094118231 -2 -1 1
4411 368 7 -0.4956 137.9250561666 138.6416136973 171.3256233137 1 2 2
6163 514 7 -0.4956 145.9425246103 143.7630459046 174.1091456646 -2 -1 1
14776 1232 4 0.1173 142.790378523 137.4363359488 169.3666227504 0 1 1
4408 368 4 0.1173 139.6863878465 137.5704623764 169.9961688775 1 2 2
15688 1308 4 0.1173 137.427388011 141.8428878866 171.5133461484 1 0 -1
8720 727 8 -0.3187 139.8926192911 144.1141311594 168.1169667905 1 -2 0
13702 1142 10 0.1088 142.5576848752 141.2319174951 168.1948537883 1 0 0
4421 369 5 0.1173 146.7577155305 138.0286574369 173.063512792 1 1 -1
14774 1232 2 -0.0695 143.7054486673 136.9882939958 169.6809644322 0 1 1
14773 1232 1 -0.3163 143.4916240629 136.8199719099 171.0813932814 0 1 1
1786 149 10 0.1088 139.2794283771 140.5428797057 179.5035891739 0 0 0
4906 409 10 0.1088 138.5848332023 143.1830633038 180.7675235767 -1 1 -1
7487 624 11 0.1088 139.6191058552 143.737317081 175.3480180459 0 0 0
7480 624 4 0.1173 142.9487875175 143.1325950087 180.0037065364 0 0 0
2021 169 5 0.1173 142.1142605352 141.4236327309 176.4007453674 0 0 -1
4904 409 8 -0.3187 136.9367880771 143.5739351975 181.7986888766 -1 1 -1
2822 236 2 -0.0695 141.2573129254 136.9923622392 178.5794554276 -1 -1 -2
2017 169 1 -0.3163 143.5240538274 141.3738315993 177.813829177 0 0 -1
1788 149 12 0.1088 137.8966606212 140.9232504831 178.4845594497 0 0 0
2018 169 2 -0.0695 142.3339034844 140.8256099425 177.2842174656 0 0 -1
7144 596 4 0.1173 144.1702066023 139.6620716878 181.8443472956 -1 2 -2
7486 624 10 0.1088 138.4512274176 142.5931966076 175.8910250766 0 0 0
1777 149 1 -0.3163 139.9683405049 139.0936394395 175.6069599256 0 0 0
1785 149 9 -0.046 138.6552883083 140.1485254305 178.6845317083 0 0 0
4908 409 12 0.1088 137.2940260606 143.7749446555 179.7383815031 -1 1 -1
694 58 10 0.1088 146.6766445473 137.7052106813 177.8232106637 1 0 -1
7484 624 8 -0.3187 139.7308297254 143.1238292819 177.3475667256 0 0 0
7477 624 1 -0.3163 141.3134388723 143.3578749282 178.8642754566 0 0 0
7485 624 9 -0.046 138.9649905694 143.4509428765 176.1358748431 0 0 0
7143 596 3 0.1173 143.9734949338 140.4031157167 180.2861360442 -1 2 -2
7145 596 5 0.1173 144.2230164005 138.6352105207 180.2855978003 -1 2 -2
7150 596 10 0.1088 138.3355901324 139.7127007521 181.7041819358 -1 2 -2
7142 596 2 -0.0695 143.7991332018 139.4648710033 180.8679800701 -1 2 -2
1784 149 8 -0.3187 139.3779607767 139.6733176516 177.6155149144 0 0 0
10830 903 6 0.5678 146.7866579051 143.7466610599 181.2487209208 0 1 0
1782 149 6 0.5678 138.9268276768 139.4289058683 176.4208137555 0 0 0
7141 596 1 -0.3163 142.422556663 139.1654413395 180.8713157562 -1 2 -2
2020 169 4 0.1173 141.5486056434 140.9063288 178.0357172688 0 0 -1
2019 169 3 0.1173 142.4271911706 139.7795796886 177.0417119192 0 0 -1
7481 624 5 0.1173 143.3193363021 144.0656007289 178.5637542001 0 0 0
7147 596 7 -0.4956 141.8547913395 141.0100526603 182.0185470462 -1 2 -2
2022 169 6 0.5678 144.7111221361 141.074555407 177.3775374282 0 0 -1
2827 236 7 -0.4956 144.0056632428 137.0870052062 177.8471312931 -1 -1 -2
2823 236 3 0.1173 141.308527311 138.0496484062 178.3797065346 -1 -1 -2
2024 169 8 -0.3187 145.6585691896 141.8528678263 177.8687024261 0 0 -1
2023 169 7 -0.4956 144.9045817464 140.2086074902 176.5445072755 0 0 -1
695 58 11 0.1088 146.3667273112 139.1624394517 178.7117351671 1 0 -1
696 58 12 0.1088 145.9993776413 137.6586366678 179.4018408043 1 0 -1
7151 596 11 0.1088 139.2251133067 141.2066412142 181.9793662478 -1 2 -2
10831 903 7 -0.4956 146.318740191 143.3052387918 180.2402123695 0 1 0
1787 149 11 0.1088 138.2048909539 139.3742544388 179.2214479299 0 0 0
7478 624 2 -0.0695 142.5554581218 143.829797896 179.353896862 0 0 0
7148 596 8 -0.3187 140.3223245346 139.4877796149 181.3173950366 -1 2 -2
5308 443 4 0.1173 144.8466984986 142.214992091 182.8142957013 0 0 0
7482 624 6 0.5678 140.7763444847 143.7801643927 177.7411790082 0 0 0
7149 596 9 -0.046 139.2776307018 140.1509881786 182.0804171579 -1 2 -2
4905 409 9 -0.046 137.7831102698 143.9080435505 180.6581668202 -1 1 -1
1783 149 7 -0.4956 137.7184870579 139.5165359283 176.0907745271 0 0 0
7146 596 6 0.5678 141.5708935269 139.9468525506 181.4010090524 -1 2 -2
693 58 9 -0.046 146.74911256 138.1546721201 178.8319996861 1 0 -1
7488 624 12 0.1088 138.1886378618 144.12521043 176.4034902076 0 0 0
2025 169 9 -0.046 146.9552038767 141.7994551433 177.3668084477 0 0 -1
2026 169 10 0.1088 146.9421669967 142.3088073983 176.3965403357 0 0 -1
691 58 7 -0.4956 146.9744676805 138.0883576533 181.5743758143 1 0 -1
2825 236 5 0.1173 141.9573602198 136.8894186734 179.374512095 -1 -1 -2
7152 596 12 0.1088 139.4409765932 139.814770611 183.1208666189 -1 2 -2
9716 810 8 -0.3187 140.5167694061 140.7849078756 189.8985867101 0 1 0
338 29 2 -0.0695 142.8798992459 142.9776175303 187.9389188017 0 1 -1
4210 351 10 0.1088 146.6162749223 137.9258628968 185.2031601729 -1 -1 -1
14861 1239 5 0.1173 146.6136205818 139.7264378042 190.325935046 0 0 0
1583 132 11 0.1088 141.832663015 139.6459756361 186.9241996159 0 0 -1
5312 443 8 -0.3187 145.5850400108 139.8495140796 186.3046653803 0 0 0
5307 443 3 0.1173 145.8316747628 142.9879181777 184.0515263139 0 0 0
1582 132 10 0.1088 141.2019768189 139.0225490784 185.469053175 0 0 -1
344 29 8 -0.3187 145.3177935071 142.0120407345 190.2602547155 0 1 -1
339 29 3 0.1173 141.9883400694 142.4823765362 187.6138885755 0 1 -1
342 29 6 0.5678 144.7022176916 142.8093899931 189.4118498937 0 1 -1
4207 351 7 -0.4956 144.4053032433 136.9798662766 186.0744045339 -1 -1 -1
16539 1379 3 0.1173 143.1929165616 139.1826634132 189.7440206341 1 0 0
17874 1472 17 -0.16 139.8090335191 144.0079556366 187.7414799902 -1 2 0
9719 810 11 0.1088 139.1579810376 141.3722372357 188.4134458068 0 1 0
340 29 4 0.1173 142.5612774663 143.9894984283 188.3709563951 0 1 -1
5311 443 7 -0.4956 145.7766333543 142.113313789 186.5297613583 0 0 0
11515 960 7 -0.4956 137.8076095921 137.7240528285 184.4531652906 -1 1 -1
343 29 7 -0.4956 145.2151833466 143.8414481932 189.0374122178 0 1 -1
1584 132 12 0.1088 142.7908073981 139.3629324244 185.5178940699 0 0 -1
9720 810 12 0.1088 138.6665779365 140.0631914064 189.3702426063 0 1 0
11512 960 4 0.1173 140.1944259781 136.8466628643 183.9804712149 -1 1 -1
5309 443 5 0.1173 144.0074122796 142.8048017514 184.3039796378 0 0 0
5316 443 12 0.1088 144.9064187691 139.0968952865 188.1407189328 0 0 0
5305 443 1 -0.3163 145.2474004327 141.1511240047 184.4923427317 0 0 0
1575 132 3 0.1173 138.2098239224 142.6535318293 184.5039024192 0 0 -1
337 29 1 -0.3163 143.6323914206 142.2291221592 188.8450929705 0 1 -1
1581 132 9 -0.046 141.8717058462 139.7320855325 185.8117988233 0 0 -1
1573 132 1 -0.3163 140.3307513663 142.6129183276 184.5513881805 0 0 -1
19529 1679 13 1.0 146.8702809618 143.6767584301 187.6415016772 0 0 -1
5314 443 10 0.1088 146.1654685193 140.2482494608 188.3525332349 0 0 0
1578 132 6 0.5678 140.3784388831 141.5104808117 185.288765734 0 0 -1
11514 960 6 0.5678 138.2241904765 137.7765245933 185.6181922362 -1 1 -1
1580 132 8 -0.3187 141.6097304926 141.0214906897 185.36965621 0 0 -1
341 29 5 0.1173 143.4053045794 143.3950437511 187.059126014 0 1 -1
5310 443 6 0.5678 145.5839872257 141.1497748472 185.8202718523 0 0 0
1579 132 7 -0.4956 139.4030546163 141.0801469989 185.8519550302 0 0 -1
11509 960 1 -0.3163 139.4168377472 137.2152157386 185.9245918103 -1 1 -1
5313 443 9 -0.046 145.8190213272 139.4972795798 187.6507604309 0 0 0
1574 132 2 -0.0695 139.0710350773 143.2603939072 184.3084013422 0 0 -1
1576 132 4 0.1173 138.8217955492 144.1975684761 184.7627290763 0 0 -1
17891 1473 17 -0.16 140.584367522 137.7797712877 190.4379435687 -1 3 0
9717 810 9 -0.046 139.5376643987 140.5025790432 188.9196257313 0 1 0
5306 443 2 -0.0695 144.9697215269 142.4032280654 183.880494588 0 0 0
9718 810 10 0.1088 139.9278512877 139.8029799053 188.1517995332 0 1 0
11516 960 8 -0.3187 137.5304774877 138.2557184771 186.7017171518 -1 1 -1
17885 1473 16 0.35 139.5336109934 137.1157052964 190.1052714764 -1 3 0
17890 1473 17 -0.16 139.1045581455 137.6706132334 189.0109818956 -1 3 0
5315 443 11 0.1088 146.5624468788 138.6546914978 187.7041814903 0 0 0
1577 132 5 0.1173 139.0544959342 143.4649121354 183.268438671 0 0 -1
4209 351 9 -0.046 146.9829253848 136.8255480426 185.2800417282 -1 -1 -1
13830 1153 6 0.5678 139.4170688745 139.9330153514 196.088160485 2 1 -1
13825 1153 1 -0.3163 139.3951439482 140.9961954827 196.8885133959 2 1 -1
16543 1379 7 -0.4956 144.4208930374 139.2371346292 193.3675247743 1 0 0
16544 1379 8 -0.3187 145.3893636829 137.2928319722 192.9585896582 1 0 0
9715 810 7 -0.4956 139.3553826105 142.3020531389 191.1116201631 0 1 0
16538 1379 2 -0.0695 143.300528977 139.2739506096 190.7700094945 1 0 0
9710 810 2 -0.0695 141.4210974462 142.6200063076 192.8459743285 0 1 0
15657 1305 9 -0.046 143.0745481686 141.8506964212 198.2430742188 0 -1 -2
1875 157 3 0.1173 145.2938503333 140.1152230118 195.7240575493 0 0 -2
13831 1153 7 -0.4956 138.5510919914 139.0414045902 195.9406296591 2 1 -1
15660 1305 12 0.1088 142.8005162624 141.0815537312 197.5533922926 0 -1 -2
19502 1652 13 1.0 137.608117327 143.4010890271 191.5759034239 1 0 0
345 29 9 -0.046 146.2264748232 142.6095441033 191.1703284569 0 1 -1
9711 810 3 0.1173 141.3706370485 143.6449839641 192.4741695609 0 1 0
9712 810 4 0.1173 140.5759250913 142.4511749352 193.4716892023 0 1 0
13829 1153 5 0.1173 138.118939913 142.2476178157 197.7858040878 2 1 -1
16547 1379 11 0.1088 145.0492544609 137.3296789001 195.0446288624 1 0 0
17883 1473 15 1.02 138.2832928884 137.2125196832 191.4578537799 -1 3 0
15656 1305 8 -0.3187 143.8524530208 142.8461736167 197.602826979 0 -1 -2
9713 810 5 0.1173 142.3774679858 142.4560375048 193.3425316953 0 1 0
13833 1153 9 -0.046 140.4080942129 139.1250413669 194.0824403131 2 1 -1
1874 157 2 -0.0695 145.9851848636 139.9842653999 196.6054224706 0 0 -2
19149 1557 17 -0.16 139.806518311 143.8548267059 195.9236030152 2 1 -2
13832 1153 8 -0.3187 140.4284273354 139.9372997002 195.2460086335 2 1 -1
16542 1379 6 0.5678 144.6522559774 138.3278749108 192.5580608717 1 0 0
9709 810 1 -0.3163 141.4139259661 141.6913029367 191.766726162 0 1 0
13836 1153 12 0.1088 139.4401312774 138.6928252911 193.7313156216 2 1 -1
16541 1379 5 0.1173 143.7290637719 140.2661633745 190.9494949984 1 0 0
17886 1473 18 -0.53 138.0693098149 138.6466482262 191.5254722114 -1 3 0
16537 1379 1 -0.3163 144.0771344794 138.2345086004 191.3212230892 1 0 0
13834 1153 10 0.1088 141.0767564064 138.3261725867 194.3601175482 2 1 -1
13835 1153 11 0.1088 140.8469987882 139.533852798 193.2135912852 2 1 -1
9714 810 6 0.5678 140.3946905927 141.6534048117 190.8859872844 0 1 0
1877 157 5 0.1173 145.3809449866 139.7557280064 197.5182327401 0 0 -2
16540 1379 4 0.1173 142.2816999423 139.1787082357 191.2992956097 1 0 0
19147 1557 18 -0.53 137.0747407558 142.4449615196 193.2108174907 2 1 -2
346 29 10 0.1088 146.6903516725 141.9294483969 191.8498150375 0 1 -1
16545 1379 9 -0.046 145.851538386 137.1585445929 194.3472544541 1 0 0
1876 157 4 0.1173 146.7284468659 139.199590471 196.3490315962 0 0 -2
8572 715 4 0.1173 141.2174875255 138.5979108718 197.7173409489 3 0 -1
13827 1153 3 0.1173 137.428181066 140.7525186074 197.482122665 2 1 -1
1873 157 1 -0.3163 146.6956840161 141.2212283124 196.6661585515 0 0 -2
347 29 11 0.1088 145.9326573389 143.4458774227 191.7276529265 0 1 -1
16548 1379 12 0.1088 146.6239704181 137.8646511531 194.6453639187 1 0 0
19522 1672 13 1.0 138.0005833204 137.275214171 196.4910198298 -1 6 1
13826 1153 2 -0.0695 138.3657227903 141.1372823643 197.8426758257 2 1 -1
16987 1413 18 -0.53 137.112388674 138.051252949 198.2604006992 1 1 -3
15654 1305 6 0.5678 144.1956687119 143.9558324678 198.2454619271 0 -1 -2
16010 1335 2 -0.0695 144.2098176116 148.7438572207 144.4500911208 1 2 0
10894 908 10 0.1088 145.8902023522 149.825037027 139.8114699048 -1 0 1
19004 1547 17 -0.16 141.5145735287 146.4314925 141.8571608198 3 3 -1
19005 1547 17 -0.16 139.7887280445 145.7848488463 142.9928716997 3 3 -1