# LAMMPS data file written by OVITO Basic 3.11.0

656 atoms
7 atom types

0.0 13.16 xlo xhi
0.0 13.097 ylo yhi
0.0 62.499530977 zlo zhi

Masses

1 12.0107  # C
2 18.9984032  # F
3 1.00794  # H
4 6.941  # Li
5 14.0067  # N
6 15.9994  # O
7 32.065  # S

Atoms  # atomic

1 1 9.85 9.762 3.994
2 1 10.789 7.701 4.614
3 1 6.047 0.727 5.256
4 1 11.864 5.749 5.358
5 1 7.526 2.541 5.444
6 1 8.873 4.465 5.506
7 1 6.246 6.445 5.593
8 1 2.655 5.718 5.807
9 1 7.697 10.605 6.144
10 1 3.221 7.884 6.515
11 1 3.904 10.068 7.045
12 1 6.582 7.634 7.591
13 1 9.76 7.704 7.833
14 1 10.404 9.963 7.864
15 1 11.251 12.153 7.889
16 1 6.543 11.506 7.981
17 1 5.428 1.323 8.255
18 1 0.537 3.436 8.541
19 1 2.714 4.312 8.645
20 1 7.118 2.872 8.767
21 1 1.301 10.738 8.789
22 1 4.957 4.99 8.799
23 1 8.836 4.445 9.068
24 1 7.06 8.672 9.643
25 1 5.354 12.207 9.881
26 1 0.813 0.729 10.391
27 1 11.919 6.906 10.391
28 1 12.143 9.23 10.64
29 1 11.471 2.772 10.661
30 1 2.868 8.111 10.802
31 1 1.581 11.548 10.976
32 1 12.528 11.515 11.025
33 1 3.363 2.453 11.336
34 1 5.604 1.799 11.596
35 1 7.784 0.948 11.799
36 1 6.7 6.337 12.009
37 1 1.03 1.104 12.7
38 1 1.851 12.154 13.229
39 1 10.031 11.478 13.491
40 1 6.222 12.43 13.519
41 1 6.905 4.603 13.579
42 1 0.675 8.594 13.928
43 1 3.002 8.91 14.003
44 1 5.347 9.013 14.062
45 1 11.35 9.768 14.413
46 1 7.29 10.585 14.505
47 1 2.443 4.919 14.639
48 1 10.47 5.277 14.881
49 1 1.419 1.351 15.003
50 1 6.897 2.874 15.169
51 1 8.419 8.683 15.294
52 1 12.496 7.932 15.326
53 1 9.85 9.762 47.421530977
54 1 10.789 7.701 48.041530977
55 1 6.047 0.727 48.683530977
56 1 11.864 5.749 48.785530977
57 1 7.526 2.541 48.871530977
58 1 8.873 4.465 48.933530977
59 1 6.246 6.445 49.020530977
60 1 2.655 5.718 49.234530977
61 1 7.697 10.605 49.571530977
62 1 3.221 7.884 49.942530977
63 1 3.904 10.068 50.472530977
64 1 6.582 7.634 51.018530977
65 1 9.76 7.704 51.260530977
66 1 10.404 9.963 51.291530977
67 1 11.251 12.153 51.316530977
68 1 6.543 11.506 51.408530977
69 1 5.428 1.323 51.682530977
70 1 0.537 3.436 51.968530977
71 1 2.714 4.312 52.072530977
72 1 7.118 2.872 52.194530977
73 1 1.301 10.738 52.216530977
74 1 4.957 4.99 52.226530977
75 1 8.836 4.445 52.495530977
76 1 7.06 8.672 53.070530977
77 1 5.354 12.207 53.308530977
78 1 0.813 0.729 53.818530977
79 1 11.919 6.906 53.818530977
80 1 12.143 9.23 54.067530977
81 1 11.471 2.772 54.088530977
82 1 2.868 8.111 54.229530977
83 1 1.581 11.548 54.403530977
84 1 12.528 11.515 54.452530977
85 1 3.363 2.453 54.763530977
86 1 5.604 1.799 55.023530977
87 1 7.784 0.948 55.226530977
88 1 6.7 6.337 55.436530977
89 1 1.03 1.104 56.127530977
90 1 1.851 12.154 56.656530977
91 1 10.031 11.478 56.918530977
92 1 6.222 12.43 56.946530977
93 1 6.905 4.603 57.006530977
94 1 0.675 8.594 57.355530977
95 1 3.002 8.91 57.430530977
96 1 5.347 9.013 57.489530977
97 1 11.35 9.768 57.840530977
98 1 7.29 10.585 57.932530977
99 1 2.443 4.919 58.066530977
100 1 10.47 5.277 58.308530977
101 1 1.419 1.351 58.430530977
102 1 6.897 2.874 58.596530977
103 1 8.419 8.683 58.721530977
104 1 12.496 7.932 58.753530977
105 2 11.365 3.567 9.586
106 2 2.016 8.288 9.793
107 2 4.12 8.13 10.321
108 2 12.447 1.89 10.45
109 2 10.325 2.131 10.872
110 2 2.706 9.077 11.701
111 2 1.666 4.158 13.866
112 2 9.843 4.106 14.879
113 2 1.846 6.071 14.927
114 2 11.752 5.133 15.222
115 2 9.882 6.094 15.742
116 2 2.712 4.266 15.76
117 2 11.365 3.567 53.013530977
118 2 2.016 8.288 53.220530977
119 2 4.12 8.13 53.748530977
120 2 12.447 1.89 53.877530977
121 2 10.325 2.131 54.299530977
122 2 2.706 9.077 55.128530977
123 2 1.666 4.158 57.293530977
124 2 9.843 4.106 58.306530977
125 2 1.846 6.071 58.354530977
126 2 11.752 5.133 58.649530977
127 2 9.882 6.094 59.169530977
128 2 2.712 4.266 59.187530977
129 3 10.254 9.973 3.0
130 3 8.9 9.224 3.915
131 3 11.637 5.335 4.37
132 3 9.656 10.713 4.501
133 3 6.514 0.051 4.534
134 3 9.14 5.25 4.792
135 3 2.458 5.241 4.841
136 3 6.881 5.864 4.917
137 3 6.064 7.42 5.129
138 3 4.96 0.612 5.189
139 3 6.999 10.676 5.305
140 3 9.722 3.779 5.585
141 3 12.894 5.476 5.609
142 3 5.305 5.907 5.735
143 3 8.35 9.741 5.983
144 3 11.197 5.326 6.113
145 3 8.327 11.498 6.195
146 3 6.35 0.467 6.275
147 3 1.693 5.886 6.301
148 3 3.28 5.049 6.404
149 3 8.664 4.929 6.473
150 3 3.051 10.704 6.792
151 3 11.126 12.52 6.867
152 3 4.823 10.649 6.915
153 3 8.879 8.039 7.276
154 3 10.136 6.795 7.354
155 3 4.668 1.23 7.473
156 3 0.354 4.178 7.757
157 3 5.305 5.065 7.765
158 3 3.85 9.753 8.092
159 3 0.094 2.489 8.217
160 3 1.631 9.85 8.24
161 3 12.123 12.645 8.332
162 3 5.881 0.341 8.419
163 3 1.927 11.579 8.475
164 3 10.377 12.407 8.497
165 3 0.253 10.93 8.545
166 3 9.773 4.681 8.554
167 3 9.493 7.469 8.867
168 3 4.567 5.953 9.143
169 3 4.932 1.672 9.166
170 3 5.022 13.054 9.272
171 3 8.327 5.381 9.312
172 3 11.609 7.119 9.363
173 3 7.728 9.501 9.395
174 3 5.808 4.726 9.4349999999
175 3 0.061 3.742 9.477
176 3 1.507 0.592 9.557
177 3 6.017 9.003 9.635
178 3 9.082 3.893 9.981
179 3 13.083 11.863 10.15
180 3 0.004 0.0 10.2959999999
181 3 0.418 1.749 10.337
182 3 12.609 6.056 10.365
183 3 4.489 11.834 10.439
184 3 6.118 12.525 10.595
185 3 2.549 2.187 10.654
186 3 7.296 8.324 10.654
187 3 11.452 11.647 10.875
188 3 8.303 1.272 10.893
189 3 11.055 6.635 11.003
190 3 3.759 3.425 11.024
191 3 5.976 6.602 11.232
192 3 7.574 5.898 11.518
193 3 12.824 12.119 11.889
194 3 8.221 0.002 12.133
195 3 2.963 2.511 12.351
196 3 6.981 7.246 12.548
197 3 7.917 1.682 12.6
198 3 6.439 0.0 12.679
199 3 9.224 11.526 12.753
200 3 1.314 13.072 12.971
201 3 10.95 11.827 13.008
202 3 5.645 9.321 13.056
203 3 2.92 12.356 13.344
204 3 0.0 7.907 13.409
205 3 0.634 9.56 13.414
206 3 5.162 12.164 13.487
207 3 1.459 11.792 14.184
208 3 9.772 12.125 14.333
209 3 6.455 12.967 14.444
210 3 6.143 8.393 14.487
211 3 13.09 7.527 14.502
212 3 7.029 1.954 14.592
213 3 5.22 9.887 14.708
214 3 8.583 7.666 14.924
215 3 0.34 8.697 14.964
216 3 0.333 1.443 15.103
217 3 1.897 2.329 15.109
218 3 7.867 3.265 15.492
219 3 9.36 9.059 15.706
220 3 1.777 0.699 15.806
221 3 13.077 8.668 15.892
222 3 12.238 7.113 16.006
223 3 6.312 2.643 16.064
224 3 7.651 8.638 16.072
225 3 10.254 9.973 46.427530977
226 3 8.9 9.224 47.342530977
227 3 11.637 5.335 47.797530977
228 3 9.656 10.713 47.928530977
229 3 6.514 0.051 47.961530977
230 3 9.14 5.25 48.219530977
231 3 2.458 5.241 48.268530977
232 3 6.881 5.864 48.344530977
233 3 6.064 7.42 48.556530977
234 3 4.96 0.612 48.616530977
235 3 6.999 10.676 48.732530977
236 3 9.722 3.779 49.012530977
237 3 12.894 5.476 49.036530977
238 3 5.305 5.907 49.162530977
239 3 8.35 9.741 49.410530977
240 3 11.197 5.326 49.540530977
241 3 8.327 11.498 49.622530977
242 3 6.35 0.467 49.702530977
243 3 1.693 5.886 49.728530977
244 3 3.28 5.049 49.831530977
245 3 8.664 4.929 49.900530977
246 3 3.051 10.704 50.219530977
247 3 11.126 12.52 50.294530977
248 3 4.823 10.649 50.342530977
249 3 8.879 8.039 50.703530977
250 3 10.136 6.795 50.781530977
251 3 4.668 1.23 50.900530977
252 3 0.354 4.178 51.184530977
253 3 5.305 5.065 51.192530977
254 3 3.85 9.753 51.519530977
255 3 0.094 2.489 51.644530977
256 3 1.631 9.85 51.667530977
257 3 12.123 12.645 51.759530977
258 3 5.881 0.341 51.846530977
259 3 1.927 11.579 51.902530977
260 3 10.377 12.407 51.924530977
261 3 0.253 10.93 51.972530977
262 3 9.773 4.681 51.981530977
263 3 9.493 7.469 52.294530977
264 3 4.567 5.953 52.570530977
265 3 4.932 1.672 52.593530977
266 3 5.022 13.054 52.699530977
267 3 8.327 5.381 52.739530977
268 3 11.609 7.119 52.790530977
269 3 7.728 9.501 52.822530977
270 3 5.808 4.726 52.862530977
271 3 0.061 3.742 52.904530977
272 3 1.507 0.592 52.984530977
273 3 6.017 9.003 53.062530977
274 3 9.082 3.893 53.408530977
275 3 13.083 11.863 53.577530977
276 3 0.004 0.0 53.723530977
277 3 0.418 1.749 53.764530977
278 3 12.609 6.056 53.792530977
279 3 4.489 11.834 53.866530977
280 3 6.118 12.525 54.022530977
281 3 2.549 2.187 54.081530977
282 3 7.296 8.324 54.081530977
283 3 11.452 11.647 54.302530977
284 3 8.303 1.272 54.320530977
285 3 11.055 6.635 54.430530977
286 3 3.759 3.425 54.451530977
287 3 5.976 6.602 54.659530977
288 3 7.574 5.898 54.945530977
289 3 12.824 12.119 55.316530977
290 3 8.221 0.002 55.560530977
291 3 2.963 2.511 55.778530977
292 3 6.981 7.246 55.975530977
293 3 7.917 1.682 56.027530977
294 3 6.439 0.0 56.106530977
295 3 9.224 11.526 56.180530977
296 3 1.314 13.072 56.398530977
297 3 10.95 11.827 56.435530977
298 3 5.645 9.321 56.483530977
299 3 2.92 12.356 56.771530977
300 3 0.0 7.907 56.836530977
301 3 0.634 9.56 56.841530977
302 3 5.162 12.164 56.914530977
303 3 1.459 11.792 57.611530977
304 3 9.772 12.125 57.760530977
305 3 6.455 12.967 57.871530977
306 3 6.143 8.393 57.914530977
307 3 13.09 7.527 57.929530977
308 3 7.029 1.954 58.019530977
309 3 5.22 9.887 58.135530977
310 3 8.583 7.666 58.351530977
311 3 0.34 8.697 58.391530977
312 3 0.333 1.443 58.530530977
313 3 1.897 2.329 58.536530977
314 3 7.867 3.265 58.919530977
315 3 9.36 9.059 59.133530977
316 3 1.777 0.699 59.233530977
317 3 13.077 8.668 59.319530977
318 3 12.238 7.113 59.433530977
319 3 6.312 2.643 59.491530977
320 3 7.651 8.638 59.499530977
321 4 1.639 10.159 15.929
322 4 2.67 8.074 16.011
323 4 1.645 1.637125 20.791656229
324 4 4.935 1.637125 20.791656229
325 4 8.225 1.637125 20.791656229
326 4 11.515 1.637125 20.791656229
327 4 1.645 4.911375 20.791656229
328 4 4.935 4.911375 20.791656229
329 4 8.225 4.911375 20.791656229
330 4 11.515 4.911375 20.791656229
331 4 1.645 8.185625 20.791656229
332 4 4.935 8.185625 20.791656229
333 4 8.225 8.185625 20.791656229
334 4 11.515 8.185625 20.791656229
335 4 1.645 11.459875 20.791656229
336 4 4.935 11.459875 20.791656229
337 4 8.225 11.459875 20.791656229
338 4 11.515 11.459875 20.791656229
339 4 0.0 0.0 22.511312458
340 4 3.29 0.0 22.511312458
341 4 6.58 0.0 22.511312458
342 4 9.87 0.0 22.511312458
343 4 0.0 3.27425 22.511312458
344 4 3.29 3.27425 22.511312458
345 4 6.58 3.27425 22.511312458
346 4 9.87 3.27425 22.511312458
347 4 0.0 6.5485 22.511312458
348 4 3.29 6.5485 22.511312458
349 4 6.58 6.5485 22.511312458
350 4 9.87 6.5485 22.511312458
351 4 0.0 9.82275 22.511312458
352 4 3.29 9.82275 22.511312458
353 4 6.58 9.82275 22.511312458
354 4 9.87 9.82275 22.511312458
355 4 1.645 1.637125 24.230968687
356 4 4.935 1.637125 24.230968687
357 4 8.225 1.637125 24.230968687
358 4 11.515 1.637125 24.230968687
359 4 1.645 4.911375 24.230968687
360 4 4.935 4.911375 24.230968687
361 4 8.225 4.911375 24.230968687
362 4 11.515 4.911375 24.230968687
363 4 1.645 8.185625 24.230968687
364 4 4.935 8.185625 24.230968687
365 4 8.225 8.185625 24.230968687
366 4 11.515 8.185625 24.230968687
367 4 1.645 11.459875 24.230968687
368 4 4.935 11.459875 24.230968687
369 4 8.225 11.459875 24.230968687
370 4 11.515 11.459875 24.230968687
371 4 0.0 0.0 25.950624916
372 4 3.29 0.0 25.950624916
373 4 6.58 0.0 25.950624916
374 4 9.87 0.0 25.950624916
375 4 0.0 3.27425 25.950624916
376 4 3.29 3.27425 25.950624916
377 4 6.58 3.27425 25.950624916
378 4 9.87 3.27425 25.950624916
379 4 0.0 6.5485 25.950624916
380 4 3.29 6.5485 25.950624916
381 4 6.58 6.5485 25.950624916
382 4 9.87 6.5485 25.950624916
383 4 0.0 9.82275 25.950624916
384 4 3.29 9.82275 25.950624916
385 4 6.58 9.82275 25.950624916
386 4 9.87 9.82275 25.950624916
387 4 1.645 1.637125 27.670281145
388 4 4.935 1.637125 27.670281145
389 4 8.225 1.637125 27.670281145
390 4 11.515 1.637125 27.670281145
391 4 1.645 4.911375 27.670281145
392 4 4.935 4.911375 27.670281145
393 4 8.225 4.911375 27.670281145
394 4 11.515 4.911375 27.670281145
395 4 1.645 8.185625 27.670281145
396 4 4.935 8.185625 27.670281145
397 4 8.225 8.185625 27.670281145
398 4 11.515 8.185625 27.670281145
399 4 1.645 11.459875 27.670281145
400 4 4.935 11.459875 27.670281145
401 4 8.225 11.459875 27.670281145
402 4 11.515 11.459875 27.670281145
403 4 0.0 0.0 29.389937374
404 4 3.29 0.0 29.389937374
405 4 6.58 0.0 29.389937374
406 4 9.87 0.0 29.389937374
407 4 0.0 3.27425 29.389937374
408 4 3.29 3.27425 29.389937374
409 4 6.58 3.27425 29.389937374
410 4 9.87 3.27425 29.389937374
411 4 0.0 6.5485 29.389937374
412 4 3.29 6.5485 29.389937374
413 4 6.58 6.5485 29.389937374
414 4 9.87 6.5485 29.389937374
415 4 0.0 9.82275 29.389937374
416 4 3.29 9.82275 29.389937374
417 4 6.58 9.82275 29.389937374
418 4 9.87 9.82275 29.389937374
419 4 1.645 1.637125 31.109593603
420 4 4.935 1.637125 31.109593603
421 4 8.225 1.637125 31.109593603
422 4 11.515 1.637125 31.109593603
423 4 1.645 4.911375 31.109593603
424 4 4.935 4.911375 31.109593603
425 4 8.225 4.911375 31.109593603
426 4 11.515 4.911375 31.109593603
427 4 1.645 8.185625 31.109593603
428 4 4.935 8.185625 31.109593603
429 4 8.225 8.185625 31.109593603
430 4 11.515 8.185625 31.109593603
431 4 1.645 11.459875 31.109593603
432 4 4.935 11.459875 31.109593603
433 4 8.225 11.459875 31.109593603
434 4 11.515 11.459875 31.109593603
435 4 0.0 0.0 32.829249832
436 4 3.29 0.0 32.829249832
437 4 6.58 0.0 32.829249832
438 4 9.87 0.0 32.829249832
439 4 0.0 3.27425 32.829249832
440 4 3.29 3.27425 32.829249832
441 4 6.58 3.27425 32.829249832
442 4 9.87 3.27425 32.829249832
443 4 0.0 6.5485 32.829249832
444 4 3.29 6.5485 32.829249832
445 4 6.58 6.5485 32.829249832
446 4 9.87 6.5485 32.829249832
447 4 0.0 9.82275 32.829249832
448 4 3.29 9.82275 32.829249832
449 4 6.58 9.82275 32.829249832
450 4 9.87 9.82275 32.829249832
451 4 1.645 1.637125 34.548906061
452 4 4.935 1.637125 34.548906061
453 4 8.225 1.637125 34.548906061
454 4 11.515 1.637125 34.548906061
455 4 1.645 4.911375 34.548906061
456 4 4.935 4.911375 34.548906061
457 4 8.225 4.911375 34.548906061
458 4 11.515 4.911375 34.548906061
459 4 1.645 8.185625 34.548906061
460 4 4.935 8.185625 34.548906061
461 4 8.225 8.185625 34.548906061
462 4 11.515 8.185625 34.548906061
463 4 1.645 11.459875 34.548906061
464 4 4.935 11.459875 34.548906061
465 4 8.225 11.459875 34.548906061
466 4 11.515 11.459875 34.548906061
467 4 0.0 0.0 36.26856229
468 4 3.29 0.0 36.26856229
469 4 6.58 0.0 36.26856229
470 4 9.87 0.0 36.26856229
471 4 0.0 3.27425 36.26856229
472 4 3.29 3.27425 36.26856229
473 4 6.58 3.27425 36.26856229
474 4 9.87 3.27425 36.26856229
475 4 0.0 6.5485 36.26856229
476 4 3.29 6.5485 36.26856229
477 4 6.58 6.5485 36.26856229
478 4 9.87 6.5485 36.26856229
479 4 0.0 9.82275 36.26856229
480 4 3.29 9.82275 36.26856229
481 4 6.58 9.82275 36.26856229
482 4 9.87 9.82275 36.26856229
483 4 1.645 1.637125 37.988218519
484 4 4.935 1.637125 37.988218519
485 4 8.225 1.637125 37.988218519
486 4 11.515 1.637125 37.988218519
487 4 1.645 4.911375 37.988218519
488 4 4.935 4.911375 37.988218519
489 4 8.225 4.911375 37.988218519
490 4 11.515 4.911375 37.988218519
491 4 1.645 8.185625 37.988218519
492 4 4.935 8.185625 37.988218519
493 4 8.225 8.185625 37.988218519
494 4 11.515 8.185625 37.988218519
495 4 1.645 11.459875 37.988218519
496 4 4.935 11.459875 37.988218519
497 4 8.225 11.459875 37.988218519
498 4 11.515 11.459875 37.988218519
499 4 0.0 0.0 39.707874748
500 4 3.29 0.0 39.707874748
501 4 6.58 0.0 39.707874748
502 4 9.87 0.0 39.707874748
503 4 0.0 3.27425 39.707874748
504 4 3.29 3.27425 39.707874748
505 4 6.58 3.27425 39.707874748
506 4 9.87 3.27425 39.707874748
507 4 0.0 6.5485 39.707874748
508 4 3.29 6.5485 39.707874748
509 4 6.58 6.5485 39.707874748
510 4 9.87 6.5485 39.707874748
511 4 0.0 9.82275 39.707874748
512 4 3.29 9.82275 39.707874748
513 4 6.58 9.82275 39.707874748
514 4 9.87 9.82275 39.707874748
515 4 1.645 1.637125 41.427530977
516 4 4.935 1.637125 41.427530977
517 4 8.225 1.637125 41.427530977
518 4 11.515 1.637125 41.427530977
519 4 1.645 4.911375 41.427530977
520 4 4.935 4.911375 41.427530977
521 4 8.225 4.911375 41.427530977
522 4 11.515 4.911375 41.427530977
523 4 1.645 8.185625 41.427530977
524 4 4.935 8.185625 41.427530977
525 4 8.225 8.185625 41.427530977
526 4 11.515 8.185625 41.427530977
527 4 1.645 11.459875 41.427530977
528 4 4.935 11.459875 41.427530977
529 4 8.225 11.459875 41.427530977
530 4 11.515 11.459875 41.427530977
531 4 1.639 10.159 59.356530977
532 4 2.67 8.074 59.438530977
533 5 10.615 4.798 12.177
534 5 3.692 6.456 12.731
535 5 10.615 4.798 55.604530977
536 5 3.692 6.456 56.158530977
537 6 10.013 7.073 3.9109999999
538 6 10.823 9.05 4.758
539 6 6.367 2.075 4.915
540 6 7.692 3.821 5.026
541 6 11.769 7.173 5.39
542 6 3.364 6.932 5.56
543 6 3.953 8.964 6.142
544 6 8.287 1.918 6.169
545 6 6.922 6.552 6.846
546 6 5.775 8.495 7.28
547 6 6.964 10.382 7.349
548 6 2.551 7.788 7.531
549 6 6.74 12.654 7.612
550 6 6.426 2.232 7.791
551 6 10.812 8.669 7.826
552 6 11.509 10.75 7.859
553 6 9.247 10.35 7.898
554 6 8.024 3.687 8.171
555 6 2.336 5.436 8.355
556 6 7.298 7.59 8.742
557 6 1.928 3.213 8.77
558 6 3.994 3.941 8.898
559 6 5.863 11.131 9.093
560 6 11.229 9.458 9.863
561 6 6.953 2.739 9.969
562 6 1.418 10.458 10.184
563 6 2.764 5.486 10.509
564 6 1.64 12.708 10.598
565 6 12.601 8.004 10.997
566 6 4.343 1.417 11.273
567 6 12.881 10.159 11.299
568 6 6.409 0.711 11.496
569 6 1.529 0.483 11.602
570 6 0.0 4.465 11.785
571 6 5.953 2.924 11.919
572 6 1.168 6.566 12.121
573 6 1.668 11.121 12.261
574 6 0.054 1.837 12.73
575 6 6.065 5.431 12.91
576 6 8.996 6.548 13.072
577 6 4.412 3.99 13.074
578 6 11.437 7.064 13.131
579 6 11.939 2.846 13.267
580 6 7.01 11.251 13.356
581 6 8.121 4.571 13.469
582 6 1.808 0.769 13.759
583 6 1.982 8.019 13.911
584 6 10.129 10.128 13.945
585 6 4.167 8.215 13.98
586 6 2.89 10.122 14.09
587 6 8.032 9.495 14.185
588 6 6.157 3.816 14.393
589 6 12.339 10.483 14.468
590 6 4.976 5.705 14.797
591 6 11.28 8.472 14.81
592 6 6.936 10.91 15.627
593 6 10.013 7.073 47.338530977
594 6 10.823 9.05 48.185530977
595 6 6.367 2.075 48.342530977
596 6 7.692 3.821 48.453530977
597 6 11.769 7.173 48.817530977
598 6 3.364 6.932 48.987530977
599 6 3.953 8.964 49.569530977
600 6 8.287 1.918 49.596530977
601 6 6.922 6.552 50.273530977
602 6 5.775 8.495 50.707530977
603 6 6.964 10.382 50.776530977
604 6 2.551 7.788 50.958530977
605 6 6.74 12.654 51.039530977
606 6 6.426 2.232 51.218530977
607 6 10.812 8.669 51.253530977
608 6 11.509 10.75 51.286530977
609 6 9.247 10.35 51.325530977
610 6 8.024 3.687 51.598530977
611 6 2.336 5.436 51.782530977
612 6 7.298 7.59 52.169530977
613 6 1.928 3.213 52.197530977
614 6 3.994 3.941 52.325530977
615 6 5.863 11.131 52.520530977
616 6 11.229 9.458 53.290530977
617 6 6.953 2.739 53.396530977
618 6 1.418 10.458 53.611530977
619 6 2.764 5.486 53.936530977
620 6 1.64 12.708 54.025530977
621 6 12.601 8.004 54.424530977
622 6 4.343 1.417 54.700530977
623 6 12.881 10.159 54.726530977
624 6 6.409 0.711 54.923530977
625 6 1.529 0.483 55.029530977
626 6 0.0 4.465 55.212530977
627 6 5.953 2.924 55.346530977
628 6 1.168 6.566 55.548530977
629 6 1.668 11.121 55.688530977
630 6 0.054 1.837 56.157530977
631 6 6.065 5.431 56.337530977
632 6 8.996 6.548 56.499530977
633 6 4.412 3.99 56.501530977
634 6 11.437 7.064 56.558530977
635 6 11.939 2.846 56.694530977
636 6 7.01 11.251 56.783530977
637 6 8.121 4.571 56.896530977
638 6 1.808 0.769 57.186530977
639 6 1.982 8.019 57.338530977
640 6 10.129 10.128 57.372530977
641 6 4.167 8.215 57.407530977
642 6 2.89 10.122 57.517530977
643 6 8.032 9.495 57.612530977
644 6 6.157 3.816 57.820530977
645 6 12.339 10.483 57.895530977
646 6 4.976 5.705 58.224530977
647 6 11.28 8.472 58.237530977
648 6 6.936 10.91 59.054530977
649 7 2.537 6.462 11.591
650 7 11.895 3.801 12.148
651 7 10.38 6.038 13.188
652 7 4.04 5.247 13.747
653 7 2.537 6.462 55.018530977
654 7 11.895 3.801 55.575530977
655 7 10.38 6.038 56.615530977
656 7 4.04 5.247 57.174530977
