# LAMMPS data file written by OVITO Basic 3.11.0

752 atoms
7 atom types

0.0 13.111 xlo xhi
0.0 13.135 ylo yhi
0.0 62.619530977 zlo zhi

Masses

1 12.0107  # C
2 18.9984032  # F
3 1.00794  # H
4 6.941  # Li
5 14.0067  # N
6 15.9994  # O
7 32.065  # S

Atoms  # atomic

1 1 6.812 8.548 3.481
2 1 12.134 0.764 3.558
3 1 5.206 1.082 3.561
4 1 4.059 4.389 3.625
5 1 7.193 6.243 3.718
6 1 12.062 12.523 3.745
7 1 7.702 3.951 3.785
8 1 5.98 11.886 3.979
9 1 12.139 3.051 4.094
10 1 2.251 5.751 4.254
11 1 12.019 5.368 4.458
12 1 11.529 8.462 4.879
13 1 0.582 7.275 4.892
14 1 1.351 10.443 5.236
15 1 10.444 10.36 5.738
16 1 12.174 12.351 6.084
17 1 8.542 8.059 6.345
18 1 1.138 1.34 6.472
19 1 5.17 7.158 6.733
20 1 9.489 12.243 6.766
21 1 2.934 6.718 7.301
22 1 6.726 4.061 7.332
23 1 7.203 9.673 7.403
24 1 0.735 6.074 7.818
25 1 5.694 11.171 8.402
26 1 12.202 12.375 8.433
27 1 4.667 3.928 8.454
28 1 9.711 1.444 8.62
29 1 11.071 7.793 9.386
30 1 2.605 3.588 9.527
31 1 8.216 2.855 9.756
32 1 8.312 12.348 10.366
33 1 0.878 12.369 10.455
34 1 5.079 7.816 10.508
35 1 4.706 0.827 10.797
36 1 6.887 4.396 10.928
37 1 8.944 8.918 11.67
38 1 0.926 0.846 11.887
39 1 0.482 8.905 12.173
40 1 0.955 3.175 12.184
41 1 0.831 5.516 12.332
42 1 8.793 12.359 12.665
43 1 6.039 0.91 12.729
44 1 0.811 12.289 12.801
45 1 9.731 4.538 12.95
46 1 10.555 9.772 13.151
47 1 6.984 7.299 13.775
48 1 4.207 11.428 14.349
49 1 12.309 2.209 14.517
50 1 12.184 10.428 14.71
51 1 7.216 0.887 14.761
52 1 12.281 4.54 14.803
53 1 12.363 6.885 14.905
54 1 9.365 12.56 14.934
55 1 0.575 12.341 15.138
56 1 2.728 4.863 15.17
57 1 1.306 6.732 15.2
58 1 3.997 2.888 15.243
59 1 6.812 8.548 46.968530977
60 1 12.134 0.764 47.045530977
61 1 5.206 1.082 47.048530977
62 1 4.059 4.389 47.112530977
63 1 7.193 6.243 47.205530977
64 1 12.062 12.523 47.232530977
65 1 7.702 3.951 47.272530977
66 1 5.98 11.886 47.466530977
67 1 12.139 3.051 47.581530977
68 1 2.251 5.751 47.741530977
69 1 12.019 5.368 47.945530977
70 1 11.529 8.462 48.366530977
71 1 0.582 7.275 48.379530977
72 1 1.351 10.443 48.723530977
73 1 10.444 10.36 49.225530977
74 1 12.174 12.351 49.571530977
75 1 8.542 8.059 49.832530977
76 1 1.138 1.34 49.959530977
77 1 5.17 7.158 50.220530977
78 1 9.489 12.243 50.253530977
79 1 2.934 6.718 50.788530977
80 1 6.726 4.061 50.819530977
81 1 7.203 9.673 50.890530977
82 1 0.735 6.074 51.305530977
83 1 5.694 11.171 51.889530977
84 1 12.202 12.375 51.920530977
85 1 4.667 3.928 51.941530977
86 1 9.711 1.444 52.107530977
87 1 11.071 7.793 52.873530977
88 1 2.605 3.588 53.014530977
89 1 8.216 2.855 53.243530977
90 1 8.312 12.348 53.853530977
91 1 0.878 12.369 53.942530977
92 1 5.079 7.816 53.995530977
93 1 4.706 0.827 54.284530977
94 1 6.887 4.396 54.415530977
95 1 8.944 8.918 55.157530977
96 1 0.926 0.846 55.374530977
97 1 0.482 8.905 55.660530977
98 1 0.955 3.175 55.671530977
99 1 0.831 5.516 55.819530977
100 1 8.793 12.359 56.152530977
101 1 6.039 0.91 56.216530977
102 1 0.811 12.289 56.288530977
103 1 9.731 4.538 56.437530977
104 1 10.555 9.772 56.638530977
105 1 6.984 7.299 57.262530977
106 1 4.207 11.428 57.836530977
107 1 12.309 2.209 58.004530977
108 1 12.184 10.428 58.197530977
109 1 7.216 0.887 58.248530977
110 1 12.281 4.54 58.290530977
111 1 12.363 6.885 58.392530977
112 1 9.365 12.56 58.421530977
113 1 0.575 12.341 58.625530977
114 1 2.728 4.863 58.657530977
115 1 1.306 6.732 58.687530977
116 1 3.997 2.888 58.730530977
117 2 5.9 10.99 3.0
118 2 4.878 2.277 3.069
119 2 6.406 0.742 3.115
120 2 4.32 0.159 3.202
121 2 5.982 13.127 3.472
122 2 1.973 9.476 4.57
123 2 7.105 11.7 4.667
124 2 0.041 10.25 5.179
125 2 0.937 0.064 6.156
126 2 0.024 2.037 6.254
127 2 1.735 10.469 6.513
128 2 1.472 1.45 7.766
129 2 10.988 8.705 8.429
130 2 12.194 7.092 9.226
131 2 4.326 8.281 9.517
132 2 6.101 7.137 10.008
133 2 11.046 8.39 10.573
134 2 0.081 8.737 10.916
135 2 5.544 8.812 11.264
136 2 6.758 7.433 12.472
137 2 8.673 3.807 12.569
138 2 0.039 10.074 12.633
139 2 0.0 7.923 12.948
140 2 3.894 10.814 13.213
141 2 9.331 5.597 13.646
142 2 10.529 3.781 13.702
143 2 8.275 7.539 14.048
144 2 6.686 6.059 14.158
145 2 3.819 12.694 14.291
146 2 3.62 10.838 15.391
147 2 5.9 10.99 46.487530977
148 2 4.878 2.277 46.556530977
149 2 6.406 0.742 46.602530977
150 2 4.32 0.159 46.689530977
151 2 5.982 13.127 46.959530977
152 2 1.973 9.476 48.057530977
153 2 7.105 11.7 48.154530977
154 2 0.041 10.25 48.666530977
155 2 0.937 0.064 49.643530977
156 2 0.024 2.037 49.741530977
157 2 1.735 10.469 50.000530977
158 2 1.472 1.45 51.253530977
159 2 10.988 8.705 51.916530977
160 2 12.194 7.092 52.713530977
161 2 4.326 8.281 53.004530977
162 2 6.101 7.137 53.495530977
163 2 11.046 8.39 54.060530977
164 2 0.081 8.737 54.403530977
165 2 5.544 8.812 54.751530977
166 2 6.758 7.433 55.959530977
167 2 8.673 3.807 56.056530977
168 2 0.039 10.074 56.120530977
169 2 0.0 7.923 56.435530977
170 2 3.894 10.814 56.700530977
171 2 9.331 5.597 57.133530977
172 2 10.529 3.781 57.189530977
173 2 8.275 7.539 57.535530977
174 2 6.686 6.059 57.645530977
175 2 3.819 12.694 57.778530977
176 2 3.62 10.838 58.878530977
177 3 5.828 8.628 3.011
178 3 4.96 4.524 3.018
179 3 3.333 3.826 3.029
180 3 11.365 12.971 3.03
181 3 7.884 3.172 3.037
182 3 13.1 0.58 3.08
183 3 11.402 0.063 3.146
184 3 7.415 9.409 3.176
185 3 13.083 12.751 3.425
186 3 11.894 11.441 3.746
187 3 11.984 6.256 3.818
188 3 11.342 8.892 3.89
189 3 0.046 7.515 3.97
190 3 6.689 3.812 4.176
191 3 4.326 3.834 4.528
192 3 6.719 8.572 4.571
193 3 8.439 3.845 4.585
194 3 12.201 0.586 4.636
195 3 13.034 5.284 4.861
196 3 12.554 8.079 4.891
197 3 10.844 7.63 5.07
198 3 11.295 5.493 5.268
199 3 8.826 8.506 5.388
200 3 0.108 6.43 5.402
201 3 0.534 8.141 5.56
202 3 5.129 7.61 5.738
203 3 8.501 6.972 6.224
204 3 9.922 13.102 6.247
205 3 8.553 11.939 6.288
206 3 6.494 4.508 6.362
207 3 6.119 6.62 6.833
208 3 9.291 8.285 7.11
209 3 7.592 3.402 7.215
210 3 0.019 5.353 7.411
211 3 0.44 7.071 7.478
212 3 5.139 7.931 7.507
213 3 9.262 12.536 7.796
214 3 10.584 1.592 7.978
215 3 8.863 1.181 7.981
216 3 6.989 4.837 8.058
217 3 6.413 11.955 8.142
218 3 4.692 11.541 8.163
219 3 13.102 11.757 8.356
220 3 11.345 11.767 8.735
221 3 0.704 6.017 8.91
222 3 12.379 0.0 9.201
223 3 2.364 4.613 9.23
224 3 9.927 0.633 9.322
225 3 1.724 2.967 9.339
226 3 5.739 10.95 9.472
227 3 8.029 13.104 9.627
228 3 0.131 12.421 9.657
229 3 9.062 11.688 9.92
230 3 6.349 4.955 10.157
231 3 1.694 13.057 10.216
232 3 5.647 0.781 10.238
233 3 4.018 0.098 10.357
234 3 1.247 11.339 10.503
235 3 2.842 3.544 10.593
236 3 7.413 11.782 10.631
237 3 4.26 1.822 10.714
238 3 9.303 9.67 10.96
239 3 8.809 7.978 11.125
240 3 6.299 3.532 11.254
241 3 1.802 0.625 11.272
242 3 0.664 6.333 11.622
243 3 0.154 0.098 11.677
244 3 7.033 5.05 11.794
245 3 7.981 9.218 12.091
246 3 1.901 5.486 12.562
247 3 1.178 0.78 12.95
248 3 0.25 5.715 13.236
249 3 12.253 1.529 13.661
250 3 0.0 10.511 14.137
251 3 1.759 7.002 14.241
252 3 3.909 2.454 14.243
253 3 7.628 1.853 14.45
254 3 11.376 7.22 14.576
255 3 13.099 7.65 14.638
256 3 7.964 0.098 14.65
257 3 11.664 11.391 14.74
258 3 9.474 11.471 14.929
259 3 11.332 2.209 15.01
260 3 0.226 6.889 15.118
261 3 1.664 12.231 15.177
262 3 13.082 1.847 15.2
263 3 4.874 3.54 15.302
264 3 0.086 11.398 15.397
265 3 8.439 12.85 15.438
266 3 10.21 12.98 15.489
267 3 12.434 10.149 15.739
268 3 6.944 0.963 15.819
269 3 0.287 13.098 15.874
270 3 4.131 2.076 15.965
271 3 12.383 6.764 15.993
272 3 1.691 7.371 15.999
273 3 5.828 8.628 46.498530977
274 3 4.96 4.524 46.505530977
275 3 3.333 3.826 46.516530977
276 3 11.365 12.971 46.517530977
277 3 7.884 3.172 46.524530977
278 3 13.1 0.58 46.567530977
279 3 11.402 0.063 46.633530977
280 3 7.415 9.409 46.663530977
281 3 13.083 12.751 46.912530977
282 3 11.894 11.441 47.233530977
283 3 11.984 6.256 47.305530977
284 3 11.342 8.892 47.377530977
285 3 0.046 7.515 47.457530977
286 3 6.689 3.812 47.663530977
287 3 4.326 3.834 48.015530977
288 3 6.719 8.572 48.058530977
289 3 8.439 3.845 48.072530977
290 3 12.201 0.586 48.123530977
291 3 13.034 5.284 48.348530977
292 3 12.554 8.079 48.378530977
293 3 10.844 7.63 48.557530977
294 3 11.295 5.493 48.755530977
295 3 8.826 8.506 48.875530977
296 3 0.108 6.43 48.889530977
297 3 0.534 8.141 49.047530977
298 3 5.129 7.61 49.225530977
299 3 8.501 6.972 49.711530977
300 3 9.922 13.102 49.734530977
301 3 8.553 11.939 49.775530977
302 3 6.494 4.508 49.849530977
303 3 6.119 6.62 50.320530977
304 3 9.291 8.285 50.597530977
305 3 7.592 3.402 50.702530977
306 3 0.019 5.353 50.898530977
307 3 0.44 7.071 50.965530977
308 3 5.139 7.931 50.994530977
309 3 9.262 12.536 51.283530977
310 3 10.584 1.592 51.465530977
311 3 8.863 1.181 51.468530977
312 3 6.989 4.837 51.545530977
313 3 6.413 11.955 51.629530977
314 3 4.692 11.541 51.650530977
315 3 13.102 11.757 51.843530977
316 3 11.345 11.767 52.222530977
317 3 0.704 6.017 52.397530977
318 3 12.379 0.0 52.688530977
319 3 2.364 4.613 52.717530977
320 3 9.927 0.633 52.809530977
321 3 1.724 2.967 52.826530977
322 3 5.739 10.95 52.959530977
323 3 8.029 13.104 53.114530977
324 3 0.131 12.421 53.144530977
325 3 9.062 11.688 53.407530977
326 3 6.349 4.955 53.644530977
327 3 1.694 13.057 53.703530977
328 3 5.647 0.781 53.725530977
329 3 4.018 0.098 53.844530977
330 3 1.247 11.339 53.990530977
331 3 2.842 3.544 54.080530977
332 3 7.413 11.782 54.118530977
333 3 4.26 1.822 54.201530977
334 3 9.303 9.67 54.447530977
335 3 8.809 7.978 54.612530977
336 3 6.299 3.532 54.741530977
337 3 1.802 0.625 54.759530977
338 3 0.664 6.333 55.109530977
339 3 0.154 0.098 55.164530977
340 3 7.033 5.05 55.281530977
341 3 7.981 9.218 55.578530977
342 3 1.901 5.486 56.049530977
343 3 1.178 0.78 56.437530977
344 3 0.25 5.715 56.723530977
345 3 12.253 1.529 57.148530977
346 3 0.0 10.511 57.624530977
347 3 1.759 7.002 57.728530977
348 3 3.909 2.454 57.730530977
349 3 7.628 1.853 57.937530977
350 3 11.376 7.22 58.063530977
351 3 13.099 7.65 58.125530977
352 3 7.964 0.098 58.137530977
353 3 11.664 11.391 58.227530977
354 3 9.474 11.471 58.416530977
355 3 11.332 2.209 58.497530977
356 3 0.226 6.889 58.605530977
357 3 1.664 12.231 58.664530977
358 3 13.082 1.847 58.687530977
359 3 4.874 3.54 58.789530977
360 3 0.086 11.398 58.884530977
361 3 8.439 12.85 58.925530977
362 3 10.21 12.98 58.976530977
363 3 12.434 10.149 59.226530977
364 3 6.944 0.963 59.306530977
365 3 0.287 13.098 59.361530977
366 3 4.131 2.076 59.452530977
367 3 12.383 6.764 59.480530977
368 3 1.691 7.371 59.486530977
369 4 2.685 6.773 9.48
370 4 7.523 9.527 9.681
371 4 3.545 11.575 10.056
372 4 11.217 10.702 10.653
373 4 3.497 0.314 13.933
374 4 1.638875 1.641875 20.851656229
375 4 4.916625 1.641875 20.851656229
376 4 8.194375 1.641875 20.851656229
377 4 11.472125 1.641875 20.851656229
378 4 1.638875 4.925625 20.851656229
379 4 4.916625 4.925625 20.851656229
380 4 8.194375 4.925625 20.851656229
381 4 11.472125 4.925625 20.851656229
382 4 1.638875 8.209375 20.851656229
383 4 4.916625 8.209375 20.851656229
384 4 8.194375 8.209375 20.851656229
385 4 11.472125 8.209375 20.851656229
386 4 1.638875 11.493125 20.851656229
387 4 4.916625 11.493125 20.851656229
388 4 8.194375 11.493125 20.851656229
389 4 11.472125 11.493125 20.851656229
390 4 0.0 0.0 22.571312458
391 4 3.27775 0.0 22.571312458
392 4 6.5555 0.0 22.571312458
393 4 9.83325 0.0 22.571312458
394 4 0.0 3.28375 22.571312458
395 4 3.27775 3.28375 22.571312458
396 4 6.5555 3.28375 22.571312458
397 4 9.83325 3.28375 22.571312458
398 4 0.0 6.5675 22.571312458
399 4 3.27775 6.5675 22.571312458
400 4 6.5555 6.5675 22.571312458
401 4 9.83325 6.5675 22.571312458
402 4 0.0 9.85125 22.571312458
403 4 3.27775 9.85125 22.571312458
404 4 6.5555 9.85125 22.571312458
405 4 9.83325 9.85125 22.571312458
406 4 1.638875 1.641875 24.290968687
407 4 4.916625 1.641875 24.290968687
408 4 8.194375 1.641875 24.290968687
409 4 11.472125 1.641875 24.290968687
410 4 1.638875 4.925625 24.290968687
411 4 4.916625 4.925625 24.290968687
412 4 8.194375 4.925625 24.290968687
413 4 11.472125 4.925625 24.290968687
414 4 1.638875 8.209375 24.290968687
415 4 4.916625 8.209375 24.290968687
416 4 8.194375 8.209375 24.290968687
417 4 11.472125 8.209375 24.290968687
418 4 1.638875 11.493125 24.290968687
419 4 4.916625 11.493125 24.290968687
420 4 8.194375 11.493125 24.290968687
421 4 11.472125 11.493125 24.290968687
422 4 0.0 0.0 26.010624916
423 4 3.27775 0.0 26.010624916
424 4 6.5555 0.0 26.010624916
425 4 9.83325 0.0 26.010624916
426 4 0.0 3.28375 26.010624916
427 4 3.27775 3.28375 26.010624916
428 4 6.5555 3.28375 26.010624916
429 4 9.83325 3.28375 26.010624916
430 4 0.0 6.5675 26.010624916
431 4 3.27775 6.5675 26.010624916
432 4 6.5555 6.5675 26.010624916
433 4 9.83325 6.5675 26.010624916
434 4 0.0 9.85125 26.010624916
435 4 3.27775 9.85125 26.010624916
436 4 6.5555 9.85125 26.010624916
437 4 9.83325 9.85125 26.010624916
438 4 1.638875 1.641875 27.730281145
439 4 4.916625 1.641875 27.730281145
440 4 8.194375 1.641875 27.730281145
441 4 11.472125 1.641875 27.730281145
442 4 1.638875 4.925625 27.730281145
443 4 4.916625 4.925625 27.730281145
444 4 8.194375 4.925625 27.730281145
445 4 11.472125 4.925625 27.730281145
446 4 1.638875 8.209375 27.730281145
447 4 4.916625 8.209375 27.730281145
448 4 8.194375 8.209375 27.730281145
449 4 11.472125 8.209375 27.730281145
450 4 1.638875 11.493125 27.730281145
451 4 4.916625 11.493125 27.730281145
452 4 8.194375 11.493125 27.730281145
453 4 11.472125 11.493125 27.730281145
454 4 0.0 0.0 29.449937374
455 4 3.27775 0.0 29.449937374
456 4 6.5555 0.0 29.449937374
457 4 9.83325 0.0 29.449937374
458 4 0.0 3.28375 29.449937374
459 4 3.27775 3.28375 29.449937374
460 4 6.5555 3.28375 29.449937374
461 4 9.83325 3.28375 29.449937374
462 4 0.0 6.5675 29.449937374
463 4 3.27775 6.5675 29.449937374
464 4 6.5555 6.5675 29.449937374
465 4 9.83325 6.5675 29.449937374
466 4 0.0 9.85125 29.449937374
467 4 3.27775 9.85125 29.449937374
468 4 6.5555 9.85125 29.449937374
469 4 9.83325 9.85125 29.449937374
470 4 1.638875 1.641875 31.169593603
471 4 4.916625 1.641875 31.169593603
472 4 8.194375 1.641875 31.169593603
473 4 11.472125 1.641875 31.169593603
474 4 1.638875 4.925625 31.169593603
475 4 4.916625 4.925625 31.169593603
476 4 8.194375 4.925625 31.169593603
477 4 11.472125 4.925625 31.169593603
478 4 1.638875 8.209375 31.169593603
479 4 4.916625 8.209375 31.169593603
480 4 8.194375 8.209375 31.169593603
481 4 11.472125 8.209375 31.169593603
482 4 1.638875 11.493125 31.169593603
483 4 4.916625 11.493125 31.169593603
484 4 8.194375 11.493125 31.169593603
485 4 11.472125 11.493125 31.169593603
486 4 0.0 0.0 32.889249832
487 4 3.27775 0.0 32.889249832
488 4 6.5555 0.0 32.889249832
489 4 9.83325 0.0 32.889249832
490 4 0.0 3.28375 32.889249832
491 4 3.27775 3.28375 32.889249832
492 4 6.5555 3.28375 32.889249832
493 4 9.83325 3.28375 32.889249832
494 4 0.0 6.5675 32.889249832
495 4 3.27775 6.5675 32.889249832
496 4 6.5555 6.5675 32.889249832
497 4 9.83325 6.5675 32.889249832
498 4 0.0 9.85125 32.889249832
499 4 3.27775 9.85125 32.889249832
500 4 6.5555 9.85125 32.889249832
501 4 9.83325 9.85125 32.889249832
502 4 1.638875 1.641875 34.608906061
503 4 4.916625 1.641875 34.608906061
504 4 8.194375 1.641875 34.608906061
505 4 11.472125 1.641875 34.608906061
506 4 1.638875 4.925625 34.608906061
507 4 4.916625 4.925625 34.608906061
508 4 8.194375 4.925625 34.608906061
509 4 11.472125 4.925625 34.608906061
510 4 1.638875 8.209375 34.608906061
511 4 4.916625 8.209375 34.608906061
512 4 8.194375 8.209375 34.608906061
513 4 11.472125 8.209375 34.608906061
514 4 1.638875 11.493125 34.608906061
515 4 4.916625 11.493125 34.608906061
516 4 8.194375 11.493125 34.608906061
517 4 11.472125 11.493125 34.608906061
518 4 0.0 0.0 36.32856229
519 4 3.27775 0.0 36.32856229
520 4 6.5555 0.0 36.32856229
521 4 9.83325 0.0 36.32856229
522 4 0.0 3.28375 36.32856229
523 4 3.27775 3.28375 36.32856229
524 4 6.5555 3.28375 36.32856229
525 4 9.83325 3.28375 36.32856229
526 4 0.0 6.5675 36.32856229
527 4 3.27775 6.5675 36.32856229
528 4 6.5555 6.5675 36.32856229
529 4 9.83325 6.5675 36.32856229
530 4 0.0 9.85125 36.32856229
531 4 3.27775 9.85125 36.32856229
532 4 6.5555 9.85125 36.32856229
533 4 9.83325 9.85125 36.32856229
534 4 1.638875 1.641875 38.048218519
535 4 4.916625 1.641875 38.048218519
536 4 8.194375 1.641875 38.048218519
537 4 11.472125 1.641875 38.048218519
538 4 1.638875 4.925625 38.048218519
539 4 4.916625 4.925625 38.048218519
540 4 8.194375 4.925625 38.048218519
541 4 11.472125 4.925625 38.048218519
542 4 1.638875 8.209375 38.048218519
543 4 4.916625 8.209375 38.048218519
544 4 8.194375 8.209375 38.048218519
545 4 11.472125 8.209375 38.048218519
546 4 1.638875 11.493125 38.048218519
547 4 4.916625 11.493125 38.048218519
548 4 8.194375 11.493125 38.048218519
549 4 11.472125 11.493125 38.048218519
550 4 0.0 0.0 39.767874748
551 4 3.27775 0.0 39.767874748
552 4 6.5555 0.0 39.767874748
553 4 9.83325 0.0 39.767874748
554 4 0.0 3.28375 39.767874748
555 4 3.27775 3.28375 39.767874748
556 4 6.5555 3.28375 39.767874748
557 4 9.83325 3.28375 39.767874748
558 4 0.0 6.5675 39.767874748
559 4 3.27775 6.5675 39.767874748
560 4 6.5555 6.5675 39.767874748
561 4 9.83325 6.5675 39.767874748
562 4 0.0 9.85125 39.767874748
563 4 3.27775 9.85125 39.767874748
564 4 6.5555 9.85125 39.767874748
565 4 9.83325 9.85125 39.767874748
566 4 1.638875 1.641875 41.487530977
567 4 4.916625 1.641875 41.487530977
568 4 8.194375 1.641875 41.487530977
569 4 11.472125 1.641875 41.487530977
570 4 1.638875 4.925625 41.487530977
571 4 4.916625 4.925625 41.487530977
572 4 8.194375 4.925625 41.487530977
573 4 11.472125 4.925625 41.487530977
574 4 1.638875 8.209375 41.487530977
575 4 4.916625 8.209375 41.487530977
576 4 8.194375 8.209375 41.487530977
577 4 11.472125 8.209375 41.487530977
578 4 1.638875 11.493125 41.487530977
579 4 4.916625 11.493125 41.487530977
580 4 8.194375 11.493125 41.487530977
581 4 11.472125 11.493125 41.487530977
582 4 2.685 6.773 52.967530977
583 4 7.523 9.527 53.168530977
584 4 3.545 11.575 53.543530977
585 4 11.217 10.702 54.140530977
586 4 3.497 0.314 57.420530977
587 5 3.313 11.996 4.094
588 5 3.73 1.077 5.882
589 5 9.508 5.941 10.688
590 5 2.631 7.393 11.688
591 5 6.483 9.9 14.128
592 5 3.313 11.996 47.581530977
593 5 3.73 1.077 49.369530977
594 5 9.508 5.941 54.175530977
595 5 2.631 7.393 55.175530977
596 5 6.483 9.9 57.615530977
597 6 7.464 7.369 3.011
598 6 7.875 5.217 3.149
599 6 0.924 12.129 3.226
600 6 11.698 2.087 3.247
601 6 11.65 4.241 3.664
602 6 3.58 5.683 3.991
603 6 2.059 1.824 4.037
604 6 1.46 4.822 4.197
605 6 1.956 7.031 4.59
606 6 6.464 6.166 4.695
607 6 9.703 10.443 4.771
608 6 11.823 13.116 5.021
609 6 12.852 2.878 5.07
610 6 1.418 13.115 5.464
611 6 4.597 10.295 5.582
612 6 5.898 2.49 5.736
613 6 6.037 0.0 5.842
614 6 2.639 3.432 5.877
615 6 11.407 9.423 5.927
616 6 12.657 11.23 6.035
617 6 4.725 12.74 6.142
618 6 7.236 8.509 6.707
619 6 10.449 11.187 6.812
620 6 4.113 6.208 6.863
621 6 11.895 13.05 7.213
622 6 2.037 5.702 7.365
623 6 2.719 7.886 7.586
624 6 5.904 9.968 7.663
625 6 8.171 10.339 7.736
626 6 5.623 3.262 7.759
627 6 9.934 5.707 8.142
628 6 4.681 5.116 8.737
629 6 3.692 3.042 8.78
630 6 8.456 7.526 8.996
631 6 9.494 2.652 9.349
632 6 7.27 2.112 9.549
633 6 8.175 4.03 10.434
634 6 11.036 3.844 10.759
635 6 3.966 5.42 10.793
636 6 2.758 9.964 11.331
637 6 8.884 13.023 11.486
638 6 0.405 2.125 11.525
639 6 0.252 12.784 11.669
640 6 0.366 4.309 11.728
641 6 11.768 5.919 11.971
642 6 6.931 1.517 12.155
643 6 4.871 0.497 12.176
644 6 10.449 10.903 12.703
645 6 9.869 8.679 12.731
646 6 8.272 11.268 12.836
647 6 4.787 6.555 12.857
648 6 1.772 11.538 12.859
649 6 1.826 3.112 13.037
650 6 9.383 13.12 13.621
651 6 6.583 12.4 13.659
652 6 2.651 9.066 13.674
653 6 0.114 12.776 13.859
654 6 12.678 3.498 14.029
655 6 6.042 0.531 14.032
656 6 11.38 9.387 14.157
657 6 12.709 5.685 14.214
658 6 4.545 8.178 14.314
659 6 3.606 5.471 14.576
660 6 1.524 5.364 15.544
661 6 2.785 3.568 15.57
662 6 11.65 4.461 15.845
663 6 6.29 11.657 16.023
664 6 6.276 8.263 16.132
665 6 7.464 7.369 46.498530977
666 6 7.875 5.217 46.636530977
667 6 0.924 12.129 46.713530977
668 6 11.698 2.087 46.734530977
669 6 11.65 4.241 47.151530977
670 6 3.58 5.683 47.478530977
671 6 2.059 1.824 47.524530977
672 6 1.46 4.822 47.684530977
673 6 1.956 7.031 48.077530977
674 6 6.464 6.166 48.182530977
675 6 9.703 10.443 48.258530977
676 6 11.823 13.116 48.508530977
677 6 12.852 2.878 48.557530977
678 6 1.418 13.115 48.951530977
679 6 4.597 10.295 49.069530977
680 6 5.898 2.49 49.223530977
681 6 6.037 0.0 49.329530977
682 6 2.639 3.432 49.364530977
683 6 11.407 9.423 49.414530977
684 6 12.657 11.23 49.522530977
685 6 4.725 12.74 49.629530977
686 6 7.236 8.509 50.194530977
687 6 10.449 11.187 50.299530977
688 6 4.113 6.208 50.350530977
689 6 11.895 13.05 50.700530977
690 6 2.037 5.702 50.852530977
691 6 2.719 7.886 51.073530977
692 6 5.904 9.968 51.150530977
693 6 8.171 10.339 51.223530977
694 6 5.623 3.262 51.246530977
695 6 9.934 5.707 51.629530977
696 6 4.681 5.116 52.224530977
697 6 3.692 3.042 52.267530977
698 6 8.456 7.526 52.483530977
699 6 9.494 2.652 52.836530977
700 6 7.27 2.112 53.036530977
701 6 8.175 4.03 53.921530977
702 6 11.036 3.844 54.246530977
703 6 3.966 5.42 54.280530977
704 6 2.758 9.964 54.818530977
705 6 8.884 13.023 54.973530977
706 6 0.405 2.125 55.012530977
707 6 0.252 12.784 55.156530977
708 6 0.366 4.309 55.215530977
709 6 11.768 5.919 55.458530977
710 6 6.931 1.517 55.642530977
711 6 4.871 0.497 55.663530977
712 6 10.449 10.903 56.190530977
713 6 9.869 8.679 56.218530977
714 6 8.272 11.268 56.323530977
715 6 4.787 6.555 56.344530977
716 6 1.772 11.538 56.346530977
717 6 1.826 3.112 56.524530977
718 6 9.383 13.12 57.108530977
719 6 6.583 12.4 57.146530977
720 6 2.651 9.066 57.161530977
721 6 0.114 12.776 57.346530977
722 6 12.678 3.498 57.516530977
723 6 6.042 0.531 57.519530977
724 6 11.38 9.387 57.644530977
725 6 12.709 5.685 57.701530977
726 6 4.545 8.178 57.801530977
727 6 3.606 5.471 58.063530977
728 6 1.524 5.364 59.031530977
729 6 2.785 3.568 59.057530977
730 6 11.65 4.461 59.332530977
731 6 6.29 11.657 59.510530977
732 6 6.276 8.263 59.619530977
733 7 1.74 12.086 4.458
734 7 4.531 11.692 5.124
735 7 5.274 1.193 5.415
736 7 2.503 2.036 5.424
737 7 9.618 6.644 9.235
738 7 10.667 5.095 11.446
739 7 4.073 6.671 11.573
740 7 2.338 8.89 12.244
741 7 6.049 11.386 14.594
742 7 5.923 8.496 14.719
743 7 1.74 12.086 47.945530977
744 7 4.531 11.692 48.611530977
745 7 5.274 1.193 48.902530977
746 7 2.503 2.036 48.911530977
747 7 9.618 6.644 52.722530977
748 7 10.667 5.095 54.933530977
749 7 4.073 6.671 55.060530977
750 7 2.338 8.89 55.731530977
751 7 6.049 11.386 58.081530977
752 7 5.923 8.496 58.206530977
