# LAMMPS data file written by OVITO Basic 3.13.0

894 atoms
6 atom types

0.0 15.161 xlo xhi
0.0 15.176 ylo yhi
0.0 66.843530977 zlo zhi

Masses

1 12.0107  # C
2 18.9984032  # F
3 1.00794  # H
4 6.941  # Li
5 15.9994  # O
6 30.973761  # P

Atoms  # atomic

1 1 2.038 13.841 3.602
2 1 14.657 6.751 3.664
3 1 9.766 8.298 3.731
4 1 13.389 4.891 3.808
5 1 8.029 9.734 3.836
6 1 2.852 11.805 4.129
7 1 2.009 8.259 4.158
8 1 4.721 3.908 4.166
9 1 1.56 5.959 4.317
10 1 1.317 3.633 4.531
11 1 5.981 2.09 4.609
12 1 10.516 12.245 4.718
13 1 3.717 12.86 4.744
14 1 8.891 7.936 4.89
15 1 14.421 4.874 4.892
16 1 12.046 10.599 5.453
17 1 5.05 2.34 5.753
18 1 5.856 10.316 6.025
19 1 13.408 8.79 6.136
20 1 13.367 7.283 6.259
21 1 4.367 6.68 6.821
22 1 1.21 8.282 7.073
23 1 8.216 13.301 7.133
24 1 14.732 14.197 7.444
25 1 0.988 6.081 7.51
26 1 7.931 3.66 7.72
27 1 9.741 11.651 7.816
28 1 8.164 6.009 7.86
29 1 4.531 10.129 7.955
30 1 8.281 8.344 8.21
31 1 14.43 12.099 8.216
32 1 4.251 6.803 8.324
33 1 11.346 10.145 8.635
34 1 0.963 6.847 8.795
35 1 1.474 2.983 8.923
36 1 13.585 13.047 9.009
37 1 7.857 9.395 9.212
38 1 4.687 12.94 9.906
39 1 10.721 5.753 9.967
40 1 3.382 9.878 9.989
41 1 12.611 7.172 9.998
42 1 14.403 8.699 10.217
43 1 5.583 7.269 10.221
44 1 1.841 4.622 10.565
45 1 8.18 1.502 10.604
46 1 9.433 5.511 10.724
47 1 6.922 2.15 11.139
48 1 9.253 10.992 11.497
49 1 4.658 1.636 11.586
50 1 5.264 11.699 11.699
51 1 2.44 0.903 11.95
52 1 7.1 7.756 11.969
53 1 4.149 12.625 12.074
54 1 2.412 6.196 12.212
55 1 12.523 10.606 12.848
56 1 9.031 12.691 13.103
57 1 12.886 8.294 13.187
58 1 13.014 5.954 13.497
59 1 12.12 4.734 13.542
60 1 1.719 3.84 13.871
61 1 3.983 3.529 14.414
62 1 5.159 7.57 14.424
63 1 0.678 12.597 14.467
64 1 7.501 7.452 14.557
65 1 8.991 14.473 14.632
66 1 9.844 7.548 14.694
67 1 1.875 8.111 14.72
68 1 6.253 3.425 15.008
69 1 3.473 13.965 15.129
70 1 6.797 10.791 15.334
71 1 0.86 14.426 15.774
72 1 1.508 6.21 16.077
73 1 8.712 11.759 16.287
74 1 1.203 13.208 16.573
75 1 4.642 12.981 16.788
76 1 4.63 14.463 17.0
77 1 1.792 2.765 17.278
78 1 1.291 4.193 17.291
79 1 10.521 12.733 17.425
80 1 6.641 7.302 17.489
81 1 7.262 8.663 17.491
82 1 5.065 8.843 17.964
83 1 2.038 13.841 49.201530977
84 1 14.657 6.751 49.263530977
85 1 9.766 8.298 49.330530977
86 1 13.389 4.891 49.407530977
87 1 8.029 9.734 49.435530977
88 1 2.852 11.805 49.728530977
89 1 2.009 8.259 49.757530977
90 1 4.721 3.908 49.765530977
91 1 1.56 5.959 49.916530977
92 1 1.317 3.633 50.130530977
93 1 5.981 2.09 50.208530977
94 1 10.516 12.245 50.317530977
95 1 3.717 12.86 50.343530977
96 1 8.891 7.936 50.489530977
97 1 14.421 4.874 50.491530977
98 1 12.046 10.599 51.052530977
99 1 5.05 2.34 51.352530977
100 1 5.856 10.316 51.624530977
101 1 13.408 8.79 51.735530977
102 1 13.367 7.283 51.858530977
103 1 4.367 6.68 52.420530977
104 1 1.21 8.282 52.672530977
105 1 8.216 13.301 52.732530977
106 1 14.732 14.197 53.043530977
107 1 0.988 6.081 53.109530977
108 1 7.931 3.66 53.319530977
109 1 9.741 11.651 53.415530977
110 1 8.164 6.009 53.459530977
111 1 4.531 10.129 53.554530977
112 1 8.281 8.344 53.809530977
113 1 14.43 12.099 53.815530977
114 1 4.251 6.803 53.923530977
115 1 11.346 10.145 54.234530977
116 1 0.963 6.847 54.394530977
117 1 1.474 2.983 54.522530977
118 1 13.585 13.047 54.608530977
119 1 7.857 9.395 54.811530977
120 1 4.687 12.94 55.505530977
121 1 10.721 5.753 55.566530977
122 1 3.382 9.878 55.588530977
123 1 12.611 7.172 55.597530977
124 1 14.403 8.699 55.816530977
125 1 5.583 7.269 55.820530977
126 1 1.841 4.622 56.164530977
127 1 8.18 1.502 56.203530977
128 1 9.433 5.511 56.323530977
129 1 6.922 2.15 56.738530977
130 1 9.253 10.992 57.096530977
131 1 4.658 1.636 57.185530977
132 1 5.264 11.699 57.298530977
133 1 2.44 0.903 57.549530977
134 1 7.1 7.756 57.568530977
135 1 4.149 12.625 57.673530977
136 1 2.412 6.196 57.811530977
137 1 12.523 10.606 58.447530977
138 1 9.031 12.691 58.702530977
139 1 12.886 8.294 58.786530977
140 1 13.014 5.954 59.096530977
141 1 12.12 4.734 59.141530977
142 1 1.719 3.84 59.470530977
143 1 3.983 3.529 60.013530977
144 1 5.159 7.57 60.023530977
145 1 0.678 12.597 60.066530977
146 1 7.501 7.452 60.156530977
147 1 8.991 14.473 60.231530977
148 1 9.844 7.548 60.293530977
149 1 1.875 8.111 60.319530977
150 1 6.253 3.425 60.607530977
151 1 3.473 13.965 60.728530977
152 1 6.797 10.791 60.933530977
153 1 0.86 14.426 61.373530977
154 1 1.508 6.21 61.676530977
155 1 8.712 11.759 61.886530977
156 1 1.203 13.208 62.172530977
157 1 4.642 12.981 62.387530977
158 1 4.63 14.463 62.599530977
159 1 1.792 2.765 62.877530977
160 1 1.291 4.193 62.890530977
161 1 10.521 12.733 63.024530977
162 1 6.641 7.302 63.088530977
163 1 7.262 8.663 63.090530977
164 1 5.065 8.843 63.563530977
165 2 12.683 1.329 8.964
166 2 11.16 0.723 9.869
167 2 12.936 2.974 10.346
168 2 13.786 1.039 10.801
169 2 11.289 2.495 11.099
170 2 12.219 0.657 11.753
171 2 13.256 1.766 15.542
172 2 14.8 1.024 16.298
173 2 12.007 0.93 17.095
174 2 12.969 2.842 17.394
175 2 13.516 0.006 17.709
176 2 14.377 1.922 18.218
177 2 12.683 1.329 54.563530977
178 2 11.16 0.723 55.468530977
179 2 12.936 2.974 55.945530977
180 2 13.786 1.039 56.400530977
181 2 11.289 2.495 56.698530977
182 2 12.219 0.657 57.352530977
183 2 13.256 1.766 61.141530977
184 2 14.8 1.024 61.897530977
185 2 12.007 0.93 62.694530977
186 2 12.969 2.842 62.993530977
187 2 13.516 0.006 63.308530977
188 2 14.377 1.922 63.817530977
189 3 9.835 7.487 3.0
190 3 2.101 8.459 3.087
191 3 13.492 4.038 3.13
192 3 3.408 11.177 3.426
193 3 0.572 3.71 3.733
194 3 11.209 12.654 3.977
195 3 10.781 8.557 4.049
196 3 5.811 1.112 4.147
197 3 12.372 4.885 4.21
198 3 1.947 2.762 4.321
199 3 9.499 12.316 4.325
200 3 4.747 12.81 4.378
201 3 0.976 8.41 4.488
202 3 2.643 8.968 4.7
203 3 8.481 6.926 4.795
204 3 15.089 4.011 4.809
205 3 2.401 11.152 4.883
206 3 7.03 2.143 4.915
207 3 13.174 6.821 5.285
208 3 5.632 9.423 5.437
209 3 14.214 9.085 5.454
210 3 0.828 3.484 5.498
211 3 10.572 12.81 5.653
212 3 5.194 11.14 5.739
213 3 6.885 10.624 5.815
214 3 3.74 12.785 5.836
215 3 9.427 7.995 5.843
216 3 13.968 4.858 5.888
217 3 4.369 1.499 5.919
218 3 8.605 13.674 6.182
219 3 3.401 6.433 6.372
220 3 4.732 7.615 6.385
221 3 5.091 5.902 6.553
222 3 14.312 6.897 6.653
223 3 5.588 2.53 6.686
224 3 7.449 3.7 6.738
225 3 12.553 6.973 6.923
226 3 7.513 12.479 6.963
227 3 13.583 9.239 7.121
228 3 7.825 8.556 7.236
229 3 0.06 5.524 7.346
230 3 1.82 5.372 7.472
231 3 9.006 3.492 7.616
232 3 11.354 9.717 7.627
233 3 7.672 14.111 7.629
234 3 13.827 11.347 7.699
235 3 2.054 2.573 8.09
236 3 9.373 8.347 8.108
237 3 7.499 2.833 8.289
238 3 0.729 3.67 8.507
239 3 3.538 7.597 8.577
240 3 3.904 5.854 8.749
241 3 15.159 11.577 8.843
242 3 8.173 10.392 8.892
243 3 10.496 6.004 8.924
244 3 12.519 12.814 8.926
245 3 12.384 10.222 8.975
246 3 14.303 9.068 9.192
247 3 10.802 9.492 9.323
248 3 0.02 6.711 9.335
249 3 6.77 9.39 9.339
250 3 2.516 9.598 9.381
251 3 0.984 2.158 9.447
252 3 1.781 6.558 9.461
253 3 8.021 1.136 9.584
254 3 11.343 4.851 9.997
255 3 13.851 13.044 10.071
256 3 8.291 9.186 10.196
257 3 15.158 7.909 10.272
258 3 8.868 4.685 10.282
259 3 3.264 10.893 10.378
260 3 9.615 10.94 10.465
261 3 6.648 3.005 10.509
262 3 9.014 2.211 10.599
263 3 8.808 6.41 10.718
264 3 3.439 9.185 10.834
265 3 14.714 9.527 10.859
266 3 8.456 0.635 11.213
267 3 2.005 1.698 11.34
268 3 8.159 10.974 11.471
269 3 2.507 7.146 11.678
270 3 9.641 5.277 11.773
271 3 4.983 10.648 11.821
272 3 1.834 0.0 11.834
273 3 13.227 10.663 12.013
274 3 9.638 10.128 12.045
275 3 8.158 7.991 12.107
276 3 7.091 2.495 12.166
277 3 6.164 11.88 12.294
278 3 6.503 8.592 12.344
279 3 3.256 12.081 12.4
280 3 6.869 6.838 12.516
281 3 1.391 6.068 12.585
282 3 11.577 4.619 12.598
283 3 11.698 11.298 12.659
284 3 13.75 5.845 12.693
285 3 1.693 3.899 12.779
286 3 4.438 13.313 12.873
287 3 2.449 1.186 13.007
288 3 3.086 6.211 13.074
289 3 4.923 7.382 13.373
290 3 12.703 3.828 13.727
291 3 13.011 10.888 13.786
292 3 2.443 8.399 13.831
293 3 9.844 6.633 14.094
294 3 1.573 2.808 14.203
295 3 6.347 2.661 14.23
296 3 8.255 0.0 14.233
297 3 0.899 4.443 14.273
298 3 10.62 8.211 14.298
299 3 11.366 4.838 14.329
300 3 13.536 6.066 14.455
301 3 0.81 8.256 14.518
302 3 7.486 10.251 14.676
303 3 6.306 11.603 14.79
304 3 4.388 8.223 14.844
305 3 7.111 4.1 14.923
306 3 5.152 6.633 14.991
307 3 9.745 15.037 15.19
308 3 8.514 13.773 15.325
309 3 2.199 8.732 15.56
310 3 6.031 10.085 15.672
311 3 1.698 15.128 15.716
312 3 10.079 7.322 15.738
313 3 6.268 2.966 16.0
314 3 0.0 14.959 16.189
315 3 1.528 2.274 16.336
316 3 10.757 13.228 16.478
317 3 6.73 6.812 16.513
318 3 7.693 8.92 16.518
319 3 5.657 12.593 16.662
320 3 2.23 13.242 16.953
321 3 5.639 14.886 16.99
322 3 0.199 4.203 17.197
323 3 2.885 2.739 17.353
324 3 0.531 13.074 17.426
325 3 11.218 11.911 17.611
326 3 4.174 12.443 17.619
327 3 4.155 14.737 17.947
328 3 1.368 2.193 18.108
329 3 10.63 13.47 18.227
330 3 1.58 4.678 18.231
331 3 7.089 6.645 18.24
332 3 8.051 8.752 18.244
333 3 9.835 7.487 48.599530977
334 3 2.101 8.459 48.686530977
335 3 13.492 4.038 48.729530977
336 3 3.408 11.177 49.025530977
337 3 0.572 3.71 49.332530977
338 3 11.209 12.654 49.576530977
339 3 10.781 8.557 49.648530977
340 3 5.811 1.112 49.746530977
341 3 12.372 4.885 49.809530977
342 3 1.947 2.762 49.920530977
343 3 9.499 12.316 49.924530977
344 3 4.747 12.81 49.977530977
345 3 0.976 8.41 50.087530977
346 3 2.643 8.968 50.299530977
347 3 8.481 6.926 50.394530977
348 3 15.089 4.011 50.408530977
349 3 2.401 11.152 50.482530977
350 3 7.03 2.143 50.514530977
351 3 13.174 6.821 50.884530977
352 3 5.632 9.423 51.036530977
353 3 14.214 9.085 51.053530977
354 3 0.828 3.484 51.097530977
355 3 10.572 12.81 51.252530977
356 3 5.194 11.14 51.338530977
357 3 6.885 10.624 51.414530977
358 3 3.74 12.785 51.435530977
359 3 9.427 7.995 51.442530977
360 3 13.968 4.858 51.487530977
361 3 4.369 1.499 51.518530977
362 3 8.605 13.674 51.781530977
363 3 3.401 6.433 51.971530977
364 3 4.732 7.615 51.984530977
365 3 5.091 5.902 52.152530977
366 3 14.312 6.897 52.252530977
367 3 5.588 2.53 52.285530977
368 3 7.449 3.7 52.337530977
369 3 12.553 6.973 52.522530977
370 3 7.513 12.479 52.562530977
371 3 13.583 9.239 52.720530977
372 3 7.825 8.556 52.835530977
373 3 0.06 5.524 52.945530977
374 3 1.82 5.372 53.071530977
375 3 9.006 3.492 53.215530977
376 3 11.354 9.717 53.226530977
377 3 7.672 14.111 53.228530977
378 3 13.827 11.347 53.298530977
379 3 2.054 2.573 53.689530977
380 3 9.373 8.347 53.707530977
381 3 7.499 2.833 53.888530977
382 3 0.729 3.67 54.106530977
383 3 3.538 7.597 54.176530977
384 3 3.904 5.854 54.348530977
385 3 15.159 11.577 54.442530977
386 3 8.173 10.392 54.491530977
387 3 10.496 6.004 54.523530977
388 3 12.519 12.814 54.525530977
389 3 12.384 10.222 54.574530977
390 3 14.303 9.068 54.791530977
391 3 10.802 9.492 54.922530977
392 3 0.02 6.711 54.934530977
393 3 6.77 9.39 54.938530977
394 3 2.516 9.598 54.980530977
395 3 0.984 2.158 55.046530977
396 3 1.781 6.558 55.060530977
397 3 8.021 1.136 55.183530977
398 3 11.343 4.851 55.596530977
399 3 13.851 13.044 55.670530977
400 3 8.291 9.186 55.795530977
401 3 15.158 7.909 55.871530977
402 3 8.868 4.685 55.881530977
403 3 3.264 10.893 55.977530977
404 3 9.615 10.94 56.064530977
405 3 6.648 3.005 56.108530977
406 3 9.014 2.211 56.198530977
407 3 8.808 6.41 56.317530977
408 3 3.439 9.185 56.433530977
409 3 14.714 9.527 56.458530977
410 3 8.456 0.635 56.812530977
411 3 2.005 1.698 56.939530977
412 3 8.159 10.974 57.070530977
413 3 2.507 7.146 57.277530977
414 3 9.641 5.277 57.372530977
415 3 4.983 10.648 57.420530977
416 3 1.834 0.0 57.433530977
417 3 13.227 10.663 57.612530977
418 3 9.638 10.128 57.644530977
419 3 8.158 7.991 57.706530977
420 3 7.091 2.495 57.765530977
421 3 6.164 11.88 57.893530977
422 3 6.503 8.592 57.943530977
423 3 3.256 12.081 57.999530977
424 3 6.869 6.838 58.115530977
425 3 1.391 6.068 58.184530977
426 3 11.577 4.619 58.197530977
427 3 11.698 11.298 58.258530977
428 3 13.75 5.845 58.292530977
429 3 1.693 3.899 58.378530977
430 3 4.438 13.313 58.472530977
431 3 2.449 1.186 58.606530977
432 3 3.086 6.211 58.673530977
433 3 4.923 7.382 58.972530977
434 3 12.703 3.828 59.326530977
435 3 13.011 10.888 59.385530977
436 3 2.443 8.399 59.430530977
437 3 9.844 6.633 59.693530977
438 3 1.573 2.808 59.802530977
439 3 6.347 2.661 59.829530977
440 3 8.255 0.0 59.832530977
441 3 0.899 4.443 59.872530977
442 3 10.62 8.211 59.897530977
443 3 11.366 4.838 59.928530977
444 3 13.536 6.066 60.054530977
445 3 0.81 8.256 60.117530977
446 3 7.486 10.251 60.275530977
447 3 6.306 11.603 60.389530977
448 3 4.388 8.223 60.443530977
449 3 7.111 4.1 60.522530977
450 3 5.152 6.633 60.590530977
451 3 9.745 15.037 60.789530977
452 3 8.514 13.773 60.924530977
453 3 2.199 8.732 61.159530977
454 3 6.031 10.085 61.271530977
455 3 1.698 15.128 61.315530977
456 3 10.079 7.322 61.337530977
457 3 6.268 2.966 61.599530977
458 3 0.0 14.959 61.788530977
459 3 1.528 2.274 61.935530977
460 3 10.757 13.228 62.077530977
461 3 6.73 6.812 62.112530977
462 3 7.693 8.92 62.117530977
463 3 5.657 12.593 62.261530977
464 3 2.23 13.242 62.552530977
465 3 5.639 14.886 62.589530977
466 3 0.199 4.203 62.796530977
467 3 2.885 2.739 62.952530977
468 3 0.531 13.074 63.025530977
469 3 11.218 11.911 63.210530977
470 3 4.174 12.443 63.218530977
471 3 4.155 14.737 63.546530977
472 3 1.368 2.193 63.707530977
473 3 10.63 13.47 63.826530977
474 3 1.58 4.678 63.830530977
475 3 7.089 6.645 63.839530977
476 3 8.051 8.752 63.843530977
477 4 5.06 5.317 12.686
478 4 6.855 13.549 18.241
479 4 2.27415 0.7588 22.963656229
480 4 9.85465 0.7588 22.963656229
481 4 6.82245 2.2764 22.963656229
482 4 14.40295 2.2764 22.963656229
483 4 3.79025 3.794 22.963656229
484 4 11.37075 3.794 22.963656229
485 4 0.75805 5.3116 22.963656229
486 4 8.33855 5.3116 22.963656229
487 4 5.30635 6.8292 22.963656229
488 4 12.88685 6.8292 22.963656229
489 4 2.27415 8.3468 22.963656229
490 4 9.85465 8.3468 22.963656229
491 4 6.82245 9.8644 22.963656229
492 4 14.40295 9.8644 22.963656229
493 4 3.79025 11.382 22.963656229
494 4 11.37075 11.382 22.963656229
495 4 0.75805 12.8996 22.963656229
496 4 8.33855 12.8996 22.963656229
497 4 5.30635 14.4172 22.963656229
498 4 12.88685 14.4172 22.963656229
499 4 0.0 0.0 24.683312458
500 4 7.5805 0.0 24.683312458
501 4 4.5483 1.5176 24.683312458
502 4 12.1288 1.5176 24.683312458
503 4 1.5161 3.0352 24.683312458
504 4 9.0966 3.0352 24.683312458
505 4 6.0644 4.5528 24.683312458
506 4 13.6449 4.5528 24.683312458
507 4 3.0322 6.0704 24.683312458
508 4 10.6127 6.0704 24.683312458
509 4 0.0 7.588 24.683312458
510 4 7.5805 7.588 24.683312458
511 4 4.5483 9.1056 24.683312458
512 4 12.1288 9.1056 24.683312458
513 4 1.5161 10.6232 24.683312458
514 4 9.0966 10.6232 24.683312458
515 4 6.0644 12.1408 24.683312458
516 4 13.6449 12.1408 24.683312458
517 4 3.0322 13.6584 24.683312458
518 4 10.6127 13.6584 24.683312458
519 4 2.27415 0.7588 26.402968687
520 4 9.85465 0.7588 26.402968687
521 4 6.82245 2.2764 26.402968687
522 4 14.40295 2.2764 26.402968687
523 4 3.79025 3.794 26.402968687
524 4 11.37075 3.794 26.402968687
525 4 0.75805 5.3116 26.402968687
526 4 8.33855 5.3116 26.402968687
527 4 5.30635 6.8292 26.402968687
528 4 12.88685 6.8292 26.402968687
529 4 2.27415 8.3468 26.402968687
530 4 9.85465 8.3468 26.402968687
531 4 6.82245 9.8644 26.402968687
532 4 14.40295 9.8644 26.402968687
533 4 3.79025 11.382 26.402968687
534 4 11.37075 11.382 26.402968687
535 4 0.75805 12.8996 26.402968687
536 4 8.33855 12.8996 26.402968687
537 4 5.30635 14.4172 26.402968687
538 4 12.88685 14.4172 26.402968687
539 4 0.0 0.0 28.122624916
540 4 7.5805 0.0 28.122624916
541 4 4.5483 1.5176 28.122624916
542 4 12.1288 1.5176 28.122624916
543 4 1.5161 3.0352 28.122624916
544 4 9.0966 3.0352 28.122624916
545 4 6.0644 4.5528 28.122624916
546 4 13.6449 4.5528 28.122624916
547 4 3.0322 6.0704 28.122624916
548 4 10.6127 6.0704 28.122624916
549 4 0.0 7.588 28.122624916
550 4 7.5805 7.588 28.122624916
551 4 4.5483 9.1056 28.122624916
552 4 12.1288 9.1056 28.122624916
553 4 1.5161 10.6232 28.122624916
554 4 9.0966 10.6232 28.122624916
555 4 6.0644 12.1408 28.122624916
556 4 13.6449 12.1408 28.122624916
557 4 3.0322 13.6584 28.122624916
558 4 10.6127 13.6584 28.122624916
559 4 2.27415 0.7588 29.842281145
560 4 9.85465 0.7588 29.842281145
561 4 6.82245 2.2764 29.842281145
562 4 14.40295 2.2764 29.842281145
563 4 3.79025 3.794 29.842281145
564 4 11.37075 3.794 29.842281145
565 4 0.75805 5.3116 29.842281145
566 4 8.33855 5.3116 29.842281145
567 4 5.30635 6.8292 29.842281145
568 4 12.88685 6.8292 29.842281145
569 4 2.27415 8.3468 29.842281145
570 4 9.85465 8.3468 29.842281145
571 4 6.82245 9.8644 29.842281145
572 4 14.40295 9.8644 29.842281145
573 4 3.79025 11.382 29.842281145
574 4 11.37075 11.382 29.842281145
575 4 0.75805 12.8996 29.842281145
576 4 8.33855 12.8996 29.842281145
577 4 5.30635 14.4172 29.842281145
578 4 12.88685 14.4172 29.842281145
579 4 0.0 0.0 31.561937374
580 4 7.5805 0.0 31.561937374
581 4 4.5483 1.5176 31.561937374
582 4 12.1288 1.5176 31.561937374
583 4 1.5161 3.0352 31.561937374
584 4 9.0966 3.0352 31.561937374
585 4 6.0644 4.5528 31.561937374
586 4 13.6449 4.5528 31.561937374
587 4 3.0322 6.0704 31.561937374
588 4 10.6127 6.0704 31.561937374
589 4 0.0 7.588 31.561937374
590 4 7.5805 7.588 31.561937374
591 4 4.5483 9.1056 31.561937374
592 4 12.1288 9.1056 31.561937374
593 4 1.5161 10.6232 31.561937374
594 4 9.0966 10.6232 31.561937374
595 4 6.0644 12.1408 31.561937374
596 4 13.6449 12.1408 31.561937374
597 4 3.0322 13.6584 31.561937374
598 4 10.6127 13.6584 31.561937374
599 4 2.27415 0.7588 33.281593603
600 4 9.85465 0.7588 33.281593603
601 4 6.82245 2.2764 33.281593603
602 4 14.40295 2.2764 33.281593603
603 4 3.79025 3.794 33.281593603
604 4 11.37075 3.794 33.281593603
605 4 0.75805 5.3116 33.281593603
606 4 8.33855 5.3116 33.281593603
607 4 5.30635 6.8292 33.281593603
608 4 12.88685 6.8292 33.281593603
609 4 2.27415 8.3468 33.281593603
610 4 9.85465 8.3468 33.281593603
611 4 6.82245 9.8644 33.281593603
612 4 14.40295 9.8644 33.281593603
613 4 3.79025 11.382 33.281593603
614 4 11.37075 11.382 33.281593603
615 4 0.75805 12.8996 33.281593603
616 4 8.33855 12.8996 33.281593603
617 4 5.30635 14.4172 33.281593603
618 4 12.88685 14.4172 33.281593603
619 4 0.0 0.0 35.001249832
620 4 7.5805 0.0 35.001249832
621 4 4.5483 1.5176 35.001249832
622 4 12.1288 1.5176 35.001249832
623 4 1.5161 3.0352 35.001249832
624 4 9.0966 3.0352 35.001249832
625 4 6.0644 4.5528 35.001249832
626 4 13.6449 4.5528 35.001249832
627 4 3.0322 6.0704 35.001249832
628 4 10.6127 6.0704 35.001249832
629 4 0.0 7.588 35.001249832
630 4 7.5805 7.588 35.001249832
631 4 4.5483 9.1056 35.001249832
632 4 12.1288 9.1056 35.001249832
633 4 1.5161 10.6232 35.001249832
634 4 9.0966 10.6232 35.001249832
635 4 6.0644 12.1408 35.001249832
636 4 13.6449 12.1408 35.001249832
637 4 3.0322 13.6584 35.001249832
638 4 10.6127 13.6584 35.001249832
639 4 2.27415 0.7588 36.720906061
640 4 9.85465 0.7588 36.720906061
641 4 6.82245 2.2764 36.720906061
642 4 14.40295 2.2764 36.720906061
643 4 3.79025 3.794 36.720906061
644 4 11.37075 3.794 36.720906061
645 4 0.75805 5.3116 36.720906061
646 4 8.33855 5.3116 36.720906061
647 4 5.30635 6.8292 36.720906061
648 4 12.88685 6.8292 36.720906061
649 4 2.27415 8.3468 36.720906061
650 4 9.85465 8.3468 36.720906061
651 4 6.82245 9.8644 36.720906061
652 4 14.40295 9.8644 36.720906061
653 4 3.79025 11.382 36.720906061
654 4 11.37075 11.382 36.720906061
655 4 0.75805 12.8996 36.720906061
656 4 8.33855 12.8996 36.720906061
657 4 5.30635 14.4172 36.720906061
658 4 12.88685 14.4172 36.720906061
659 4 0.0 0.0 38.44056229
660 4 7.5805 0.0 38.44056229
661 4 4.5483 1.5176 38.44056229
662 4 12.1288 1.5176 38.44056229
663 4 1.5161 3.0352 38.44056229
664 4 9.0966 3.0352 38.44056229
665 4 6.0644 4.5528 38.44056229
666 4 13.6449 4.5528 38.44056229
667 4 3.0322 6.0704 38.44056229
668 4 10.6127 6.0704 38.44056229
669 4 0.0 7.588 38.44056229
670 4 7.5805 7.588 38.44056229
671 4 4.5483 9.1056 38.44056229
672 4 12.1288 9.1056 38.44056229
673 4 1.5161 10.6232 38.44056229
674 4 9.0966 10.6232 38.44056229
675 4 6.0644 12.1408 38.44056229
676 4 13.6449 12.1408 38.44056229
677 4 3.0322 13.6584 38.44056229
678 4 10.6127 13.6584 38.44056229
679 4 2.27415 0.7588 40.160218519
680 4 9.85465 0.7588 40.160218519
681 4 6.82245 2.2764 40.160218519
682 4 14.40295 2.2764 40.160218519
683 4 3.79025 3.794 40.160218519
684 4 11.37075 3.794 40.160218519
685 4 0.75805 5.3116 40.160218519
686 4 8.33855 5.3116 40.160218519
687 4 5.30635 6.8292 40.160218519
688 4 12.88685 6.8292 40.160218519
689 4 2.27415 8.3468 40.160218519
690 4 9.85465 8.3468 40.160218519
691 4 6.82245 9.8644 40.160218519
692 4 14.40295 9.8644 40.160218519
693 4 3.79025 11.382 40.160218519
694 4 11.37075 11.382 40.160218519
695 4 0.75805 12.8996 40.160218519
696 4 8.33855 12.8996 40.160218519
697 4 5.30635 14.4172 40.160218519
698 4 12.88685 14.4172 40.160218519
699 4 0.0 0.0 41.879874748
700 4 7.5805 0.0 41.879874748
701 4 4.5483 1.5176 41.879874748
702 4 12.1288 1.5176 41.879874748
703 4 1.5161 3.0352 41.879874748
704 4 9.0966 3.0352 41.879874748
705 4 6.0644 4.5528 41.879874748
706 4 13.6449 4.5528 41.879874748
707 4 3.0322 6.0704 41.879874748
708 4 10.6127 6.0704 41.879874748
709 4 0.0 7.588 41.879874748
710 4 7.5805 7.588 41.879874748
711 4 4.5483 9.1056 41.879874748
712 4 12.1288 9.1056 41.879874748
713 4 1.5161 10.6232 41.879874748
714 4 9.0966 10.6232 41.879874748
715 4 6.0644 12.1408 41.879874748
716 4 13.6449 12.1408 41.879874748
717 4 3.0322 13.6584 41.879874748
718 4 10.6127 13.6584 41.879874748
719 4 2.27415 0.7588 43.599530977
720 4 9.85465 0.7588 43.599530977
721 4 6.82245 2.2764 43.599530977
722 4 14.40295 2.2764 43.599530977
723 4 3.79025 3.794 43.599530977
724 4 11.37075 3.794 43.599530977
725 4 0.75805 5.3116 43.599530977
726 4 8.33855 5.3116 43.599530977
727 4 5.30635 6.8292 43.599530977
728 4 12.88685 6.8292 43.599530977
729 4 2.27415 8.3468 43.599530977
730 4 9.85465 8.3468 43.599530977
731 4 6.82245 9.8644 43.599530977
732 4 14.40295 9.8644 43.599530977
733 4 3.79025 11.382 43.599530977
734 4 11.37075 11.382 43.599530977
735 4 0.75805 12.8996 43.599530977
736 4 8.33855 12.8996 43.599530977
737 4 5.30635 14.4172 43.599530977
738 4 12.88685 14.4172 43.599530977
739 4 5.06 5.317 58.285530977
740 4 6.855 13.549 63.840530977
741 5 13.611 6.092 3.096
742 5 1.324 14.706 3.123
743 5 9.154 9.424 3.136
744 5 15.087 7.822 3.271
745 5 1.836 12.506 3.439
746 5 7.285 10.66 3.563
747 5 4.267 4.878 3.584
748 5 5.707 3.112 3.671
749 5 0.389 6.109 4.009
750 5 3.136 14.091 4.364
751 5 2.487 6.943 4.435
752 5 2.165 4.779 4.603
753 5 0.0 6.067 4.725
754 5 7.839 8.88 4.877
755 5 10.805 10.863 4.956
756 5 4.307 3.487 5.391
757 5 12.155 9.251 5.618
758 5 12.911 11.426 5.704
759 5 1.345 9.324 6.454
760 5 1.145 7.052 6.495
761 5 15.147 15.127 6.773
762 5 8.77 6.074 6.8
763 5 9.283 10.827 7.04
764 5 15.106 12.901 7.268
765 5 3.523 10.486 7.366
766 5 5.768 10.0 7.415
767 5 9.306 12.926 7.974
768 5 1.106 8.204 8.427
769 5 7.686 4.872 8.441
770 5 13.836 14.325 8.459
771 5 7.849 7.058 8.669
772 5 10.774 11.452 8.672
773 5 4.676 13.386 8.772
774 5 5.536 7.126 8.868
775 5 13.111 6.631 9.021
776 5 4.61 9.789 9.267
777 5 2.383 3.633 9.811
778 5 5.532 11.965 10.337
779 5 0.677 4.99 10.537
780 5 6.866 7.571 10.568
781 5 11.425 6.84 10.578
782 5 13.143 8.215 10.694
783 5 3.856 13.355 10.9
784 5 4.64 7.147 10.991
785 5 5.86 1.189 11.128
786 5 2.82 5.131 11.354
787 5 3.768 0.607 11.506
788 5 4.418 2.763 11.997
789 5 9.768 12.189 12.08
790 5 11.981 9.285 12.95
791 5 12.21 7.114 13.253
792 5 14.094 8.44 13.315
793 5 0.475 11.898 13.489
794 5 7.996 12.217 13.543
795 5 9.648 13.813 13.551
796 5 2.807 14.104 14.117
797 5 3.949 2.345 14.12
798 5 2.945 4.4 14.343
799 5 0.547 13.951 14.48
800 5 6.408 8.255 14.511
801 5 7.497 6.231 14.535
802 5 8.599 8.245 14.631
803 5 5.067 4.207 14.868
804 5 2.145 6.731 14.991
805 5 9.322 11.73 15.229
806 5 3.9 12.764 15.604
807 5 1.063 12.121 15.681
808 5 3.882 14.991 15.923
809 5 1.871 4.902 16.191
810 5 7.444 11.321 16.49
811 5 0.744 6.812 16.82
812 5 9.184 12.236 17.466
813 5 5.276 7.511 17.791
814 5 6.21 9.557 17.796
815 5 3.983 9.337 18.236
816 5 13.611 6.092 48.695530977
817 5 1.324 14.706 48.722530977
818 5 9.154 9.424 48.735530977
819 5 15.087 7.822 48.870530977
820 5 1.836 12.506 49.038530977
821 5 7.285 10.66 49.162530977
822 5 4.267 4.878 49.183530977
823 5 5.707 3.112 49.270530977
824 5 0.389 6.109 49.608530977
825 5 3.136 14.091 49.963530977
826 5 2.487 6.943 50.034530977
827 5 2.165 4.779 50.202530977
828 5 0.0 6.067 50.324530977
829 5 7.839 8.88 50.476530977
830 5 10.805 10.863 50.555530977
831 5 4.307 3.487 50.990530977
832 5 12.155 9.251 51.217530977
833 5 12.911 11.426 51.303530977
834 5 1.345 9.324 52.053530977
835 5 1.145 7.052 52.094530977
836 5 15.147 15.127 52.372530977
837 5 8.77 6.074 52.399530977
838 5 9.283 10.827 52.639530977
839 5 15.106 12.901 52.867530977
840 5 3.523 10.486 52.965530977
841 5 5.768 10.0 53.014530977
842 5 9.306 12.926 53.573530977
843 5 1.106 8.204 54.026530977
844 5 7.686 4.872 54.040530977
845 5 13.836 14.325 54.058530977
846 5 7.849 7.058 54.268530977
847 5 10.774 11.452 54.271530977
848 5 4.676 13.386 54.371530977
849 5 5.536 7.126 54.467530977
850 5 13.111 6.631 54.620530977
851 5 4.61 9.789 54.866530977
852 5 2.383 3.633 55.410530977
853 5 5.532 11.965 55.936530977
854 5 0.677 4.99 56.136530977
855 5 6.866 7.571 56.167530977
856 5 11.425 6.84 56.177530977
857 5 13.143 8.215 56.293530977
858 5 3.856 13.355 56.499530977
859 5 4.64 7.147 56.590530977
860 5 5.86 1.189 56.727530977
861 5 2.82 5.131 56.953530977
862 5 3.768 0.607 57.105530977
863 5 4.418 2.763 57.596530977
864 5 9.768 12.189 57.679530977
865 5 11.981 9.285 58.549530977
866 5 12.21 7.114 58.852530977
867 5 14.094 8.44 58.914530977
868 5 0.475 11.898 59.088530977
869 5 7.996 12.217 59.142530977
870 5 9.648 13.813 59.150530977
871 5 2.807 14.104 59.716530977
872 5 3.949 2.345 59.719530977
873 5 2.945 4.4 59.942530977
874 5 0.547 13.951 60.079530977
875 5 6.408 8.255 60.110530977
876 5 7.497 6.231 60.134530977
877 5 8.599 8.245 60.230530977
878 5 5.067 4.207 60.467530977
879 5 2.145 6.731 60.590530977
880 5 9.322 11.73 60.828530977
881 5 3.9 12.764 61.203530977
882 5 1.063 12.121 61.280530977
883 5 3.882 14.991 61.522530977
884 5 1.871 4.902 61.790530977
885 5 7.444 11.321 62.089530977
886 5 0.744 6.812 62.419530977
887 5 9.184 12.236 63.065530977
888 5 5.276 7.511 63.390530977
889 5 6.21 9.557 63.395530977
890 5 3.983 9.337 63.835530977
891 6 12.345 1.536 10.472
892 6 13.487 1.416 17.043
893 6 12.345 1.536 56.071530977
894 6 13.487 1.416 62.642530977
