# LAMMPS data file written by OVITO Basic 3.11.0

15360 atoms
7 atom types

0.0 52.424 xlo xhi
0.0 52.556 ylo yhi
0.0 52.376 zlo zhi

Masses

1 1.00794  # H
2 6.941  # Li
3 12.0107  # C
4 14.0067  # N
5 15.9994  # O
6 18.9984032  # F
7 32.065  # S

Atoms  # atomic

1 1 5.3926911414 12.3482644677 9.1600977435
2 1 4.2238807309 13.6900355442 9.1788250675
3 1 5.8967713104 14.0295377497 8.7585470578
4 1 2.7009100512 11.7589397008 3.9452870111
5 1 2.4957040731 10.4909793376 5.2446200962
6 1 1.7470146297 12.0485785239 5.4911816646
7 1 1.4989423132 5.9535362931 13.2993634101
8 1 2.3940723054 6.7265990258 11.968241372
9 1 3.2976351483 6.2585309714 13.4793741043
10 1 4.3722336444 1.0973523694 11.2431099703
11 1 4.5979856406 1.370396281 12.9747866696
12 1 3.0655395542 0.7139733164 -0.6858165463
13 1 8.8613337188 13.3946631092 2.678403595
14 1 7.6100732541 13.9932949387 3.702230807
15 1 8.2936127058 12.3475264958 4.0363198866
16 1 9.3793533818 13.5726989683 8.4331147505
17 1 10.7984129854 14.645797262 8.5083797172
18 1 9.1485566294 15.2864338931 8.0650553975
19 1 11.8085995705 10.2143693343 6.3699028977
20 1 12.0548166356 11.6287090662 5.4705520942
21 1 12.2212579598 10.0062211301 4.6473128634
22 1 7.6852015387 11.3408557235 7.4712914968
23 1 6.3807273377 11.3952353291 6.244202367
24 1 7.0824157576 9.8241818104 6.7999072326
25 1 1.9502963082 8.5383796004 1.5984957466
26 1 2.540762153 9.9762714273 2.5199181503
27 1 1.5008872589 11.9588515059 1.9534099775
28 1 0.5889429026 5.3013110055 5.1510521181
29 1 -0.7677310632 6.2832301101 5.642231938
30 1 -0.7517438652 5.5942467272 3.9807787591
31 1 6.2002843677 5.7763842871 4.4823077051
32 1 6.1384265807 4.9852881262 2.8240604437
33 1 5.9401769882 6.7210574183 2.9261114243
34 1 10.8881281105 8.3762861425 3.9990706383
35 1 11.3247883298 7.7066582999 2.3742024228
36 1 9.894421529 8.841895498 2.6826146474
37 1 6.8426291623 14.5737056879 10.696059778
38 1 6.6075809873 12.8422986588 10.3756360007
39 1 8.0725802336 13.5656301938 9.7602193005
40 1 9.6498502105 11.2628477186 15.0017384324
41 1 8.0019954334 10.7743322931 14.8917180409
42 1 9.1785844722 10.2959682035 13.5723380764
43 1 1.0806159004 -0.9247450995 9.1300794054
44 1 0.1702028117 -1.4137209463 7.7813746001
45 1 -0.8270268687 -0.9599994131 9.2474623038
46 1 -1.57853219 3.73552898 6.1000236671
47 1 -0.1796587613 3.0541685995 5.100994965
48 1 -1.6342527031 2.1667890714 5.2889793283
49 1 9.610479951 2.7091232378 3.7466773159
50 1 9.0552022133 4.4235020368 3.5005535116
51 1 10.7786079084 4.076543066 3.8216887231
52 1 6.6408674416 1.3198209561 1.2204634458
53 1 6.4714572307 3.0377190132 0.6621840826
54 1 7.6477835526 1.9069758342 -0.1619897621
55 1 8.8442484218 4.4005084428 10.8848026983
56 1 9.1749571407 4.4616838623 9.1070261713
57 1 10.1201470456 5.4722458901 10.3111364075
58 1 13.1879916527 1.563766267 12.7593021629
59 1 0.6976563083 1.205398439 11.093805159
60 1 13.9066540651 2.8599927742 11.8772525744
61 1 -0.9801991995 4.3303518638 1.5504831457
62 1 0.0713459809 3.4398214053 0.4680230549
63 1 0.7003947605 4.8454686435 1.4595529359
64 1 3.1297346843 0.475331135 2.7555791774
65 1 3.9647778998 2.0158597395 2.5276396963
66 1 3.7041387189 1.2527264903 4.2432598084
67 1 12.618467425 9.587036605 10.7421453089
68 1 14.3014314426 8.9602685864 11.0541408608
69 1 13.4169857728 9.7402517456 12.3349771195
70 1 9.1734744955 6.0927637639 12.3526579747
71 1 9.9548884678 5.7364577944 13.9749762021
72 1 9.3368532694 7.3960539806 13.5467539355
73 1 13.0809987135 13.1724875434 3.7064338329
74 1 11.3000559993 12.8410350055 3.3238056201
75 1 12.4008408039 13.5938424457 2.1372305705
76 1 11.5164388504 12.8381292511 0.5352113397
77 1 12.2116228234 12.8777687722 -1.1334775545
78 1 11.8268321804 11.3507468063 -0.321375297
79 1 4.3068911476 9.7223484669 4.9941918403
80 1 5.5790066632 8.7797432358 4.1052456405
81 1 5.5834277983 8.8515966492 5.8661529071
82 1 3.5834736997 4.3667285432 3.0366214458
83 1 1.9321596384 4.4739402112 3.8087248859
84 1 2.3994850478 5.5317159724 2.442901506
85 1 5.9235577048 12.3575624319 3.9261731714
86 1 6.7421353078 12.1917671588 2.3741553404
87 1 6.8757159169 -2.2739737865 3.6405064548
88 1 3.8784283817 10.2785101807 -1.3994323184
89 1 2.3383197823 10.3892287252 -0.4472293243
90 1 3.2084523485 11.8341337233 -0.8736866133
91 1 6.8358550641 3.5724503829 10.815279606
92 1 5.2191404338 4.162165207 10.2248148598
93 1 5.4789370682 3.8080114405 11.9841119308
94 1 6.5115626295 9.2328319209 13.2735625129
95 1 5.4306042737 7.994676827 14.1194443953
96 1 7.2075945028 7.8584113397 14.2531756295
97 2 6.8962311265 6.9539335778 10.003514202
98 2 3.6182598086 6.3164682893 6.270949317
99 2 -1.0512915059 6.2228642363 10.791052162
100 3 3.7605753757 12.3618989121 6.9364064491
101 3 5.1023509252 13.2833763848 8.6672050556
102 3 2.5938016446 11.547394237 5.0127229178
103 3 3.2958977217 3.7276309522 12.7296359008
104 3 2.4816537035 6.013257563 12.7859234446
105 3 3.8691611043 1.4023267707 12.1690820266
106 3 9.128743388 13.8698208468 5.8863566165
107 3 8.4797275565 13.3578138751 3.6971050543
108 3 9.8651703877 14.4573628162 7.9916993184
109 3 9.4798021435 10.8636419631 5.9851570078
110 3 11.6795196935 10.6111682408 5.3787395501
111 3 7.2978277703 10.8701823737 6.5764625639
112 3 0.7049283964 7.6967944748 3.2926452644
113 3 1.730306412 9.4181690598 2.1937468411
114 3 -0.1579432613 6.0234566482 4.7906651564
115 3 8.3775868352 7.0730177975 3.3551507218
116 3 6.3858305121 5.8592949563 3.4248071513
117 3 10.4913039306 7.996905116 3.0431388222
118 3 7.7920552035 12.156792903 12.4711744222
119 3 7.3463694889 13.6175722673 10.5745475694
120 3 8.8658458128 11.052321267 14.282326301
121 3 -0.1650696268 0.9802590947 6.958297706
122 3 0.097202368 -0.7905197665 8.6681883276
123 3 -0.9869963784 2.8607039465 5.8147333123
124 3 9.2349853233 3.1922345758 1.0609836649
125 3 9.8585556203 3.7032504136 3.3606177169
126 3 7.1421962925 2.1686700418 0.7414126846
127 3 11.4843925679 3.3880190608 11.0367188116
128 3 9.6061423053 4.5400663653 10.0991353123
129 3 13.320746959 1.951469839 11.7464783687
130 3 1.367921382 2.2459408113 2.3231904636
131 3 0.0376256028 3.9740848279 1.4102984266
132 3 3.3726274442 1.4326170116 3.2290483978
133 3 11.5645215349 8.0004270639 12.5941802275
134 3 13.3051830006 9.1036020607 11.4513159915
135 3 9.7687564891 6.4821758015 13.1670420448
136 3 13.6802746587 11.5753734369 1.5638057986
137 3 12.3281588889 12.8576685044 2.9490666178
138 3 12.2247710681 12.3481912595 -0.179411237
139 3 3.8338483217 7.0614805371 3.8795896959
140 3 4.9377756633 8.8289403712 4.992454103
141 3 2.7563474323 5.0134575005 3.3301795601
142 3 4.7254735523 11.4732339662 1.3645389898
143 3 6.2578500604 11.6295879459 3.1689649333
144 3 3.3396783818 10.7906918555 -0.596827359
145 3 6.3410655013 6.0564336612 12.5405415314
146 3 5.9269585409 4.1240350607 11.0435318578
147 3 6.391376374 8.205875403 13.6203601157
148 3 2.4647309987 3.1833068836 8.6133594357
149 3 6.0608596611 2.541347222 4.9983896281
150 3 4.3809389457 9.4869961156 8.9342155944
151 3 0.7012458394 8.6141246718 7.4752500777
152 3 9.4911453247 6.2736866566 6.5626549828
153 3 9.1736522401 10.1108269506 10.0300555712
154 4 4.50891794 2.5922317962 7.1860146043
155 4 2.3524804698 7.5890585697 9.6044183058
156 4 8.7774061557 8.3585220967 8.0428547239
157 5 4.8626811578 13.0441063717 7.2726460573
158 5 3.793706273 12.1150543164 5.6296113736
159 5 2.8683225565 12.0937338377 7.70721637
160 5 2.8001922524 4.7890552808 12.0113960282
161 5 3.3449020917 2.7095895399 11.8498785658
162 5 3.6192600739 3.8418996252 13.8811605809
163 5 9.5096319476 13.8351619356 4.5703652445
164 5 10.1884134576 14.076932734 6.664925279
165 5 8.0081269687 13.7394250905 6.3400226435
166 5 10.2901611346 10.6198816063 4.9275494813
167 5 8.2316318255 11.0007900793 5.5136662079
168 5 9.8201241294 10.9381707032 7.1436858331
169 5 1.1119010143 8.9857604795 3.4561505323
170 5 0.6026202803 7.233680925 4.5446965663
171 5 0.3948534633 7.1419297709 2.2490192178
172 5 7.7903466444 5.8718120568 3.3052014012
173 5 9.6545122951 6.8092284701 3.2633318706
174 5 7.8383434512 8.1597725032 3.3669636419
175 5 8.0142837923 13.3122307255 11.7910416658
176 5 8.5708187824 12.2935864715 13.5715301557
177 5 7.0306458745 11.2448872973 12.2126142139
178 5 0.1549546193 0.6465595973 8.2473029638
179 5 -0.5239898004 2.2876555061 7.0333271126
180 5 -0.1699994898 0.2833003454 5.9729613681
181 5 10.1417192373 3.6227034907 1.9544867968
182 5 8.2874600958 2.520883592 1.6431107659
183 5 9.3763449197 3.3494970919 -0.1450816047
184 5 10.4915945812 3.3834587048 10.1618154961
185 5 12.0544527126 2.2096565496 11.1682587358
186 5 11.9766067259 4.3933392321 11.5124367928
187 5 0.3589650174 3.1606785098 2.5434283707
188 5 2.1612474197 2.1959978281 3.4012569131
189 5 1.4319731557 1.6084316724 1.2996241529
190 5 12.6698397057 7.8523218309 11.8477210209
191 5 11.0142805044 6.7926151157 12.613595102
192 5 11.2434232761 9.0126031126 13.1738239463
193 5 12.5678464506 11.5866438571 2.42274385
194 5 13.5689654913 12.1782473667 0.3587145746
195 5 13.9175151842 10.1044890905 1.3420838254
196 5 4.0998714052 7.7284759295 5.0734640402
197 5 3.2094476523 5.9808444736 4.2885590551
198 5 4.0678840784 7.4833676752 2.7712742108
199 5 5.1422841425 10.8741177968 2.5270820921
200 5 4.0149725235 10.5574411073 0.6652075102
201 5 4.9339959061 12.6268538111 1.0588569663
202 5 6.2951517854 5.5314681009 11.2797766575
203 5 6.4291396597 7.3881794525 12.3854019648
204 5 6.1877150882 5.3927646467 13.5505592856
205 5 2.7987059933 4.3011071962 6.2079937523
206 5 2.357267818 1.8347011297 6.2122507132
207 5 5.8470691337 4.6954791026 6.4806872742
208 5 6.9194613504 2.7183934973 7.5019658426
209 5 4.6085343848 7.3295852199 10.4775379447
210 5 4.3914438382 7.0574684719 8.0855277137
211 5 1.7605117273 6.2944270298 7.413097569
212 5 0.1606967017 6.5628629433 9.2389818577
213 5 7.6527943994 6.1139837905 8.2766632644
214 5 7.3012664655 7.6271981844 6.1944596523
215 5 8.7932727485 7.5894437434 10.4361107023
216 5 10.9764855187 8.1033220319 9.3796113724
217 6 2.5241796748 1.990628505 9.3554523992
218 6 3.3585090825 4.0419600078 9.2484212543
219 6 1.1959693089 3.6165682613 8.6474220308
220 6 7.3539038639 2.7864885581 4.6436339824
221 6 5.7573645544 1.2128912088 4.9781454335
222 6 5.3066882992 3.1631449127 4.0999224299
223 6 3.4284758594 10.2373602614 9.5299916351
224 6 5.6141202634 9.7171626314 9.4395911889
225 6 4.4578474699 9.5136887323 7.52873352
226 6 -0.4494326661 8.0637179352 7.0761918756
227 6 0.4827027728 9.7825252617 8.0922047111
228 6 1.5290460605 8.7652982105 6.4901733149
229 6 10.3439015627 6.0601178338 7.5907385472
230 6 9.0608772962 5.1751835418 5.9649313569
231 6 10.1877409207 6.9964746534 5.6275070431
232 6 7.8698098271 10.4086075495 9.9106469472
233 6 9.5672494158 9.9777944572 11.3434165435
234 6 9.9558162638 11.0467016392 9.5061107824
235 7 5.8225615994 3.2424042294 6.7065180681
236 7 3.0589653471 2.9755631904 6.8002203458
237 7 1.3026387266 7.13030398 8.5101617147
238 7 3.9049301532 7.7684052948 9.290360735
239 7 9.5235030127 8.3116890601 9.3721110783
240 7 8.0503736485 7.1352330357 7.3110812521
241 1 5.3926911414 12.3482644677 22.2540977435
242 1 4.2238807309 13.6900355442 22.2728250675
243 1 5.8967713104 14.0295377497 21.8525470578
244 1 2.7009100512 11.7589397008 17.0392870111
245 1 2.4957040731 10.4909793376 18.3386200962
246 1 1.7470146297 12.0485785239 18.5851816646
247 1 1.4989423132 5.9535362931 26.3933634101
248 1 2.3940723054 6.7265990258 25.062241372
249 1 3.2976351483 6.2585309714 26.5733741043
250 1 4.3722336444 1.0973523694 24.3371099703
251 1 4.5979856406 1.370396281 26.0687866696
252 1 3.0655395542 0.7139733164 12.4081834537
253 1 8.8613337188 13.3946631092 15.772403595
254 1 7.6100732541 13.9932949387 16.796230807
255 1 8.2936127058 12.3475264958 17.1303198866
256 1 9.3793533818 13.5726989683 21.5271147505
257 1 10.7984129854 14.645797262 21.6023797172
258 1 9.1485566294 15.2864338931 21.1590553975
259 1 11.8085995705 10.2143693343 19.4639028977
260 1 12.0548166356 11.6287090662 18.5645520942
261 1 12.2212579598 10.0062211301 17.7413128634
262 1 7.6852015387 11.3408557235 20.5652914968
263 1 6.3807273377 11.3952353291 19.338202367
264 1 7.0824157576 9.8241818104 19.8939072326
265 1 1.9502963082 8.5383796004 14.6924957466
266 1 2.540762153 9.9762714273 15.6139181503
267 1 1.5008872589 11.9588515059 15.0474099775
268 1 0.5889429026 5.3013110055 18.2450521181
269 1 -0.7677310632 6.2832301101 18.736231938
270 1 -0.7517438652 5.5942467272 17.0747787591
271 1 6.2002843677 5.7763842871 17.5763077051
272 1 6.1384265807 4.9852881262 15.9180604437
273 1 5.9401769882 6.7210574183 16.0201114243
274 1 10.8881281105 8.3762861425 17.0930706383
275 1 11.3247883298 7.7066582999 15.4682024228
276 1 9.894421529 8.841895498 15.7766146474
277 1 6.8426291623 14.5737056879 23.790059778
278 1 6.6075809873 12.8422986588 23.4696360007
279 1 8.0725802336 13.5656301938 22.8542193005
280 1 9.6498502105 11.2628477186 28.0957384324
281 1 8.0019954334 10.7743322931 27.9857180409
282 1 9.1785844722 10.2959682035 26.6663380764
283 1 1.0806159004 -0.9247450995 22.2240794054
284 1 0.1702028117 -1.4137209463 20.8753746001
285 1 -0.8270268687 -0.9599994131 22.3414623038
286 1 -1.57853219 3.73552898 19.1940236671
287 1 -0.1796587613 3.0541685995 18.194994965
288 1 -1.6342527031 2.1667890714 18.3829793283
289 1 9.610479951 2.7091232378 16.8406773159
290 1 9.0552022133 4.4235020368 16.5945535116
291 1 10.7786079084 4.076543066 16.9156887231
292 1 6.6408674416 1.3198209561 14.3144634458
293 1 6.4714572307 3.0377190132 13.7561840826
294 1 7.6477835526 1.9069758342 12.9320102379
295 1 8.8442484218 4.4005084428 23.9788026983
296 1 9.1749571407 4.4616838623 22.2010261713
297 1 10.1201470456 5.4722458901 23.4051364075
298 1 13.1879916527 1.563766267 25.8533021629
299 1 0.6976563083 1.205398439 24.187805159
300 1 13.9066540651 2.8599927742 24.9712525744
301 1 -0.9801991995 4.3303518638 14.6444831457
302 1 0.0713459809 3.4398214053 13.5620230549
303 1 0.7003947605 4.8454686435 14.5535529359
304 1 3.1297346843 0.475331135 15.8495791774
305 1 3.9647778998 2.0158597395 15.6216396963
306 1 3.7041387189 1.2527264903 17.3372598084
307 1 12.618467425 9.587036605 23.8361453089
308 1 14.3014314426 8.9602685864 24.1481408608
309 1 13.4169857728 9.7402517456 25.4289771195
310 1 9.1734744955 6.0927637639 25.4466579747
311 1 9.9548884678 5.7364577944 27.0689762021
312 1 9.3368532694 7.3960539806 26.6407539355
313 1 13.0809987135 13.1724875434 16.8004338329
314 1 11.3000559993 12.8410350055 16.4178056201
315 1 12.4008408039 13.5938424457 15.2312305705
316 1 11.5164388504 12.8381292511 13.6292113397
317 1 12.2116228234 12.8777687722 11.9605224455
318 1 11.8268321804 11.3507468063 12.772624703
319 1 4.3068911476 9.7223484669 18.0881918403
320 1 5.5790066632 8.7797432358 17.1992456405
321 1 5.5834277983 8.8515966492 18.9601529071
322 1 3.5834736997 4.3667285432 16.1306214458
323 1 1.9321596384 4.4739402112 16.9027248859
324 1 2.3994850478 5.5317159724 15.536901506
325 1 5.9235577048 12.3575624319 17.0201731714
326 1 6.7421353078 12.1917671588 15.4681553404
327 1 6.8757159169 -2.2739737865 16.7345064548
328 1 3.8784283817 10.2785101807 11.6945676816
329 1 2.3383197823 10.3892287252 12.6467706757
330 1 3.2084523485 11.8341337233 12.2203133867
331 1 6.8358550641 3.5724503829 23.909279606
332 1 5.2191404338 4.162165207 23.3188148598
333 1 5.4789370682 3.8080114405 25.0781119308
334 1 6.5115626295 9.2328319209 26.3675625129
335 1 5.4306042737 7.994676827 27.2134443953
336 1 7.2075945028 7.8584113397 27.3471756295
337 2 6.8962311265 6.9539335778 23.097514202
338 2 3.6182598086 6.3164682893 19.364949317
339 2 -1.0512915059 6.2228642363 23.885052162
340 3 3.7605753757 12.3618989121 20.0304064491
341 3 5.1023509252 13.2833763848 21.7612050556
342 3 2.5938016446 11.547394237 18.1067229178
343 3 3.2958977217 3.7276309522 25.8236359008
344 3 2.4816537035 6.013257563 25.8799234446
345 3 3.8691611043 1.4023267707 25.2630820266
346 3 9.128743388 13.8698208468 18.9803566165
347 3 8.4797275565 13.3578138751 16.7911050543
348 3 9.8651703877 14.4573628162 21.0856993184
349 3 9.4798021435 10.8636419631 19.0791570078
350 3 11.6795196935 10.6111682408 18.4727395501
351 3 7.2978277703 10.8701823737 19.6704625639
352 3 0.7049283964 7.6967944748 16.3866452644
353 3 1.730306412 9.4181690598 15.2877468411
354 3 -0.1579432613 6.0234566482 17.8846651564
355 3 8.3775868352 7.0730177975 16.4491507218
356 3 6.3858305121 5.8592949563 16.5188071513
357 3 10.4913039306 7.996905116 16.1371388222
358 3 7.7920552035 12.156792903 25.5651744222
359 3 7.3463694889 13.6175722673 23.6685475694
360 3 8.8658458128 11.052321267 27.376326301
361 3 -0.1650696268 0.9802590947 20.052297706
362 3 0.097202368 -0.7905197665 21.7621883276
363 3 -0.9869963784 2.8607039465 18.9087333123
364 3 9.2349853233 3.1922345758 14.1549836649
365 3 9.8585556203 3.7032504136 16.4546177169
366 3 7.1421962925 2.1686700418 13.8354126846
367 3 11.4843925679 3.3880190608 24.1307188116
368 3 9.6061423053 4.5400663653 23.1931353123
369 3 13.320746959 1.951469839 24.8404783687
370 3 1.367921382 2.2459408113 15.4171904636
371 3 0.0376256028 3.9740848279 14.5042984266
372 3 3.3726274442 1.4326170116 16.3230483978
373 3 11.5645215349 8.0004270639 25.6881802275
374 3 13.3051830006 9.1036020607 24.5453159915
375 3 9.7687564891 6.4821758015 26.2610420448
376 3 13.6802746587 11.5753734369 14.6578057986
377 3 12.3281588889 12.8576685044 16.0430666178
378 3 12.2247710681 12.3481912595 12.914588763
379 3 3.8338483217 7.0614805371 16.9735896959
380 3 4.9377756633 8.8289403712 18.086454103
381 3 2.7563474323 5.0134575005 16.4241795601
382 3 4.7254735523 11.4732339662 14.4585389898
383 3 6.2578500604 11.6295879459 16.2629649333
384 3 3.3396783818 10.7906918555 12.497172641
385 3 6.3410655013 6.0564336612 25.6345415314
386 3 5.9269585409 4.1240350607 24.1375318578
387 3 6.391376374 8.205875403 26.7143601157
388 3 2.4647309987 3.1833068836 21.7073594357
389 3 6.0608596611 2.541347222 18.0923896281
390 3 4.3809389457 9.4869961156 22.0282155944
391 3 0.7012458394 8.6141246718 20.5692500777
392 3 9.4911453247 6.2736866566 19.6566549828
393 3 9.1736522401 10.1108269506 23.1240555712
394 4 4.50891794 2.5922317962 20.2800146043
395 4 2.3524804698 7.5890585697 22.6984183058
396 4 8.7774061557 8.3585220967 21.1368547239
397 5 4.8626811578 13.0441063717 20.3666460573
398 5 3.793706273 12.1150543164 18.7236113736
399 5 2.8683225565 12.0937338377 20.80121637
400 5 2.8001922524 4.7890552808 25.1053960282
401 5 3.3449020917 2.7095895399 24.9438785658
402 5 3.6192600739 3.8418996252 26.9751605809
403 5 9.5096319476 13.8351619356 17.6643652445
404 5 10.1884134576 14.076932734 19.758925279
405 5 8.0081269687 13.7394250905 19.4340226435
406 5 10.2901611346 10.6198816063 18.0215494813
407 5 8.2316318255 11.0007900793 18.6076662079
408 5 9.8201241294 10.9381707032 20.2376858331
409 5 1.1119010143 8.9857604795 16.5501505323
410 5 0.6026202803 7.233680925 17.6386965663
411 5 0.3948534633 7.1419297709 15.3430192178
412 5 7.7903466444 5.8718120568 16.3992014012
413 5 9.6545122951 6.8092284701 16.3573318706
414 5 7.8383434512 8.1597725032 16.4609636419
415 5 8.0142837923 13.3122307255 24.8850416658
416 5 8.5708187824 12.2935864715 26.6655301557
417 5 7.0306458745 11.2448872973 25.3066142139
418 5 0.1549546193 0.6465595973 21.3413029638
419 5 -0.5239898004 2.2876555061 20.1273271126
420 5 -0.1699994898 0.2833003454 19.0669613681
421 5 10.1417192373 3.6227034907 15.0484867968
422 5 8.2874600958 2.520883592 14.7371107659
423 5 9.3763449197 3.3494970919 12.9489183953
424 5 10.4915945812 3.3834587048 23.2558154961
425 5 12.0544527126 2.2096565496 24.2622587358
426 5 11.9766067259 4.3933392321 24.6064367928
427 5 0.3589650174 3.1606785098 15.6374283707
428 5 2.1612474197 2.1959978281 16.4952569131
429 5 1.4319731557 1.6084316724 14.3936241529
430 5 12.6698397057 7.8523218309 24.9417210209
431 5 11.0142805044 6.7926151157 25.707595102
432 5 11.2434232761 9.0126031126 26.2678239463
433 5 12.5678464506 11.5866438571 15.51674385
434 5 13.5689654913 12.1782473667 13.4527145746
435 5 13.9175151842 10.1044890905 14.4360838254
436 5 4.0998714052 7.7284759295 18.1674640402
437 5 3.2094476523 5.9808444736 17.3825590551
438 5 4.0678840784 7.4833676752 15.8652742108
439 5 5.1422841425 10.8741177968 15.6210820921
440 5 4.0149725235 10.5574411073 13.7592075102
441 5 4.9339959061 12.6268538111 14.1528569663
442 5 6.2951517854 5.5314681009 24.3737766575
443 5 6.4291396597 7.3881794525 25.4794019648
444 5 6.1877150882 5.3927646467 26.6445592856
445 5 2.7987059933 4.3011071962 19.3019937523
446 5 2.357267818 1.8347011297 19.3062507132
447 5 5.8470691337 4.6954791026 19.5746872742
448 5 6.9194613504 2.7183934973 20.5959658426
449 5 4.6085343848 7.3295852199 23.5715379447
450 5 4.3914438382 7.0574684719 21.1795277137
451 5 1.7605117273 6.2944270298 20.507097569
452 5 0.1606967017 6.5628629433 22.3329818577
453 5 7.6527943994 6.1139837905 21.3706632644
454 5 7.3012664655 7.6271981844 19.2884596523
455 5 8.7932727485 7.5894437434 23.5301107023
456 5 10.9764855187 8.1033220319 22.4736113724
457 6 2.5241796748 1.990628505 22.4494523992
458 6 3.3585090825 4.0419600078 22.3424212543
459 6 1.1959693089 3.6165682613 21.7414220308
460 6 7.3539038639 2.7864885581 17.7376339824
461 6 5.7573645544 1.2128912088 18.0721454335
462 6 5.3066882992 3.1631449127 17.1939224299
463 6 3.4284758594 10.2373602614 22.6239916351
464 6 5.6141202634 9.7171626314 22.5335911889
465 6 4.4578474699 9.5136887323 20.62273352
466 6 -0.4494326661 8.0637179352 20.1701918756
467 6 0.4827027728 9.7825252617 21.1862047111
468 6 1.5290460605 8.7652982105 19.5841733149
469 6 10.3439015627 6.0601178338 20.6847385472
470 6 9.0608772962 5.1751835418 19.0589313569
471 6 10.1877409207 6.9964746534 18.7215070431
472 6 7.8698098271 10.4086075495 23.0046469472
473 6 9.5672494158 9.9777944572 24.4374165435
474 6 9.9558162638 11.0467016392 22.6001107824
475 7 5.8225615994 3.2424042294 19.8005180681
476 7 3.0589653471 2.9755631904 19.8942203458
477 7 1.3026387266 7.13030398 21.6041617147
478 7 3.9049301532 7.7684052948 22.384360735
479 7 9.5235030127 8.3116890601 22.4661110783
480 7 8.0503736485 7.1352330357 20.4050812521
481 1 5.3926911414 12.3482644677 35.3480977435
482 1 4.2238807309 13.6900355442 35.3668250675
483 1 5.8967713104 14.0295377497 34.9465470578
484 1 2.7009100512 11.7589397008 30.1332870111
485 1 2.4957040731 10.4909793376 31.4326200962
486 1 1.7470146297 12.0485785239 31.6791816646
487 1 1.4989423132 5.9535362931 39.4873634101
488 1 2.3940723054 6.7265990258 38.156241372
489 1 3.2976351483 6.2585309714 39.6673741043
490 1 4.3722336444 1.0973523694 37.4311099703
491 1 4.5979856406 1.370396281 39.1627866696
492 1 3.0655395542 0.7139733164 25.5021834537
493 1 8.8613337188 13.3946631092 28.866403595
494 1 7.6100732541 13.9932949387 29.890230807
495 1 8.2936127058 12.3475264958 30.2243198866
496 1 9.3793533818 13.5726989683 34.6211147505
497 1 10.7984129854 14.645797262 34.6963797172
498 1 9.1485566294 15.2864338931 34.2530553975
499 1 11.8085995705 10.2143693343 32.5579028977
500 1 12.0548166356 11.6287090662 31.6585520942
501 1 12.2212579598 10.0062211301 30.8353128634
502 1 7.6852015387 11.3408557235 33.6592914968
503 1 6.3807273377 11.3952353291 32.432202367
504 1 7.0824157576 9.8241818104 32.9879072326
505 1 1.9502963082 8.5383796004 27.7864957466
506 1 2.540762153 9.9762714273 28.7079181503
507 1 1.5008872589 11.9588515059 28.1414099775
508 1 0.5889429026 5.3013110055 31.3390521181
509 1 -0.7677310632 6.2832301101 31.830231938
510 1 -0.7517438652 5.5942467272 30.1687787591
511 1 6.2002843677 5.7763842871 30.6703077051
512 1 6.1384265807 4.9852881262 29.0120604437
513 1 5.9401769882 6.7210574183 29.1141114243
514 1 10.8881281105 8.3762861425 30.1870706383
515 1 11.3247883298 7.7066582999 28.5622024228
516 1 9.894421529 8.841895498 28.8706146474
517 1 6.8426291623 14.5737056879 36.884059778
518 1 6.6075809873 12.8422986588 36.5636360007
519 1 8.0725802336 13.5656301938 35.9482193005
520 1 9.6498502105 11.2628477186 41.1897384324
521 1 8.0019954334 10.7743322931 41.0797180409
522 1 9.1785844722 10.2959682035 39.7603380764
523 1 1.0806159004 -0.9247450995 35.3180794054
524 1 0.1702028117 -1.4137209463 33.9693746001
525 1 -0.8270268687 -0.9599994131 35.4354623038
526 1 -1.57853219 3.73552898 32.2880236671
527 1 -0.1796587613 3.0541685995 31.288994965
528 1 -1.6342527031 2.1667890714 31.4769793283
529 1 9.610479951 2.7091232378 29.9346773159
530 1 9.0552022133 4.4235020368 29.6885535116
531 1 10.7786079084 4.076543066 30.0096887231
532 1 6.6408674416 1.3198209561 27.4084634458
533 1 6.4714572307 3.0377190132 26.8501840826
534 1 7.6477835526 1.9069758342 26.0260102379
535 1 8.8442484218 4.4005084428 37.0728026983
536 1 9.1749571407 4.4616838623 35.2950261713
537 1 10.1201470456 5.4722458901 36.4991364075
538 1 13.1879916527 1.563766267 38.9473021629
539 1 0.6976563083 1.205398439 37.281805159
540 1 13.9066540651 2.8599927742 38.0652525744
541 1 -0.9801991995 4.3303518638 27.7384831457
542 1 0.0713459809 3.4398214053 26.6560230549
543 1 0.7003947605 4.8454686435 27.6475529359
544 1 3.1297346843 0.475331135 28.9435791774
545 1 3.9647778998 2.0158597395 28.7156396963
546 1 3.7041387189 1.2527264903 30.4312598084
547 1 12.618467425 9.587036605 36.9301453089
548 1 14.3014314426 8.9602685864 37.2421408608
549 1 13.4169857728 9.7402517456 38.5229771195
550 1 9.1734744955 6.0927637639 38.5406579747
551 1 9.9548884678 5.7364577944 40.1629762021
552 1 9.3368532694 7.3960539806 39.7347539355
553 1 13.0809987135 13.1724875434 29.8944338329
554 1 11.3000559993 12.8410350055 29.5118056201
555 1 12.4008408039 13.5938424457 28.3252305705
556 1 11.5164388504 12.8381292511 26.7232113397
557 1 12.2116228234 12.8777687722 25.0545224455
558 1 11.8268321804 11.3507468063 25.866624703
559 1 4.3068911476 9.7223484669 31.1821918403
560 1 5.5790066632 8.7797432358 30.2932456405
561 1 5.5834277983 8.8515966492 32.0541529071
562 1 3.5834736997 4.3667285432 29.2246214458
563 1 1.9321596384 4.4739402112 29.9967248859
564 1 2.3994850478 5.5317159724 28.630901506
565 1 5.9235577048 12.3575624319 30.1141731714
566 1 6.7421353078 12.1917671588 28.5621553404
567 1 6.8757159169 -2.2739737865 29.8285064548
568 1 3.8784283817 10.2785101807 24.7885676816
569 1 2.3383197823 10.3892287252 25.7407706757
570 1 3.2084523485 11.8341337233 25.3143133867
571 1 6.8358550641 3.5724503829 37.003279606
572 1 5.2191404338 4.162165207 36.4128148598
573 1 5.4789370682 3.8080114405 38.1721119308
574 1 6.5115626295 9.2328319209 39.4615625129
575 1 5.4306042737 7.994676827 40.3074443953
576 1 7.2075945028 7.8584113397 40.4411756295
577 2 6.8962311265 6.9539335778 36.191514202
578 2 3.6182598086 6.3164682893 32.458949317
579 2 -1.0512915059 6.2228642363 36.979052162
580 3 3.7605753757 12.3618989121 33.1244064491
581 3 5.1023509252 13.2833763848 34.8552050556
582 3 2.5938016446 11.547394237 31.2007229178
583 3 3.2958977217 3.7276309522 38.9176359008
584 3 2.4816537035 6.013257563 38.9739234446
585 3 3.8691611043 1.4023267707 38.3570820266
586 3 9.128743388 13.8698208468 32.0743566165
587 3 8.4797275565 13.3578138751 29.8851050543
588 3 9.8651703877 14.4573628162 34.1796993184
589 3 9.4798021435 10.8636419631 32.1731570078
590 3 11.6795196935 10.6111682408 31.5667395501
591 3 7.2978277703 10.8701823737 32.7644625639
592 3 0.7049283964 7.6967944748 29.4806452644
593 3 1.730306412 9.4181690598 28.3817468411
594 3 -0.1579432613 6.0234566482 30.9786651564
595 3 8.3775868352 7.0730177975 29.5431507218
596 3 6.3858305121 5.8592949563 29.6128071513
597 3 10.4913039306 7.996905116 29.2311388222
598 3 7.7920552035 12.156792903 38.6591744222
599 3 7.3463694889 13.6175722673 36.7625475694
600 3 8.8658458128 11.052321267 40.470326301
601 3 -0.1650696268 0.9802590947 33.146297706
602 3 0.097202368 -0.7905197665 34.8561883276
603 3 -0.9869963784 2.8607039465 32.0027333123
604 3 9.2349853233 3.1922345758 27.2489836649
605 3 9.8585556203 3.7032504136 29.5486177169
606 3 7.1421962925 2.1686700418 26.9294126846
607 3 11.4843925679 3.3880190608 37.2247188116
608 3 9.6061423053 4.5400663653 36.2871353123
609 3 13.320746959 1.951469839 37.9344783687
610 3 1.367921382 2.2459408113 28.5111904636
611 3 0.0376256028 3.9740848279 27.5982984266
612 3 3.3726274442 1.4326170116 29.4170483978
613 3 11.5645215349 8.0004270639 38.7821802275
614 3 13.3051830006 9.1036020607 37.6393159915
615 3 9.7687564891 6.4821758015 39.3550420448
616 3 13.6802746587 11.5753734369 27.7518057986
617 3 12.3281588889 12.8576685044 29.1370666178
618 3 12.2247710681 12.3481912595 26.008588763
619 3 3.8338483217 7.0614805371 30.0675896959
620 3 4.9377756633 8.8289403712 31.180454103
621 3 2.7563474323 5.0134575005 29.5181795601
622 3 4.7254735523 11.4732339662 27.5525389898
623 3 6.2578500604 11.6295879459 29.3569649333
624 3 3.3396783818 10.7906918555 25.591172641
625 3 6.3410655013 6.0564336612 38.7285415314
626 3 5.9269585409 4.1240350607 37.2315318578
627 3 6.391376374 8.205875403 39.8083601157
628 3 2.4647309987 3.1833068836 34.8013594357
629 3 6.0608596611 2.541347222 31.1863896281
630 3 4.3809389457 9.4869961156 35.1222155944
631 3 0.7012458394 8.6141246718 33.6632500777
632 3 9.4911453247 6.2736866566 32.7506549828
633 3 9.1736522401 10.1108269506 36.2180555712
634 4 4.50891794 2.5922317962 33.3740146043
635 4 2.3524804698 7.5890585697 35.7924183058
636 4 8.7774061557 8.3585220967 34.2308547239
637 5 4.8626811578 13.0441063717 33.4606460573
638 5 3.793706273 12.1150543164 31.8176113736
639 5 2.8683225565 12.0937338377 33.89521637
640 5 2.8001922524 4.7890552808 38.1993960282
641 5 3.3449020917 2.7095895399 38.0378785658
642 5 3.6192600739 3.8418996252 40.0691605809
643 5 9.5096319476 13.8351619356 30.7583652445
644 5 10.1884134576 14.076932734 32.852925279
645 5 8.0081269687 13.7394250905 32.5280226435
646 5 10.2901611346 10.6198816063 31.1155494813
647 5 8.2316318255 11.0007900793 31.7016662079
648 5 9.8201241294 10.9381707032 33.3316858331