# LAMMPS data file written by OVITO Basic 3.11.0

14336 atoms
7 atom types

0.0 52.64 xlo xhi
0.0 52.388 ylo yhi
0.0 52.288 zlo zhi

Masses

1 1.00794  # H
2 6.941  # Li
3 12.0107  # C
4 14.0067  # N
5 15.9994  # O
6 18.9984032  # F
7 32.065  # S

Atoms  # atomic

1 1 5.6510265176 4.0943055349 2.2624241589
2 1 5.779969269 2.7770587267 1.0259834511
3 1 4.7703920366 2.5473472224 2.4836522864
4 1 0.9132819631 2.3717991345 -0.0242669082
5 1 0.1495064604 3.8133362041 0.7680593904
6 1 0.5607845847 3.867568618 -0.9927666708
7 1 11.5226571975 9.977360877 13.5183254848
8 1 9.8020640856 10.1645329446 13.0152127473
9 1 10.203982179 9.2857020323 14.5337129062
10 1 12.2651419188 14.4390091635 14.8376863474
11 1 12.03974507 14.457366078 13.006882032
12 1 11.0232530664 15.4791601114 14.1194998683
13 1 3.323217494 7.1948145255 4.0790014787
14 1 3.9244009053 5.5770979346 3.5638947387
15 1 3.6528468893 6.8971355308 2.3717046953
16 1 7.5778986681 6.105357767 0.8639914975
17 1 8.0981026292 7.8159995861 0.6333832136
18 1 9.1008439272 6.735536008 1.6876616502
19 1 9.517182463 3.6015734142 2.3019039604
20 1 10.5846869582 4.4866207404 3.4532231988
21 1 8.7959002662 4.3787126607 3.7502404798
22 1 8.387722374 -0.5409711184 2.9720192957
23 1 9.5822277961 -1.477422796 3.989880937
24 1 7.990607563 -0.944228549 4.63867989
25 1 2.046307723 0.7888525374 4.2088389583
26 1 0.920712363 1.3422676449 2.8580508379
27 1 0.3862709079 0.1700721707 4.1387948341
28 1 1.24315375 6.0900273202 4.4970588034
29 1 -0.3852204149 5.6024505054 3.8250904412
30 1 -0.273409105 6.1608191029 5.4954204765
31 1 -0.2201512926 8.6253537512 5.7688486871
32 1 0.516027986 8.7572036452 7.372407693
33 1 1.4662418996 7.890048712 6.1364925923
34 1 1.460148679 13.4767263017 7.2357808348
35 1 2.7720982276 12.7545346923 8.1301139375
36 1 3.1365832865 13.7159559653 6.6803379001
37 1 4.5923691118 0.7262336731 3.4972818282
38 1 4.0091224916 1.3869084798 5.0975062931
39 1 4.4011917832 -0.3699978984 4.9194950135
40 1 6.7446668852 2.0160441875 8.3455077674
41 1 7.7215027291 0.511167867 8.48345374
42 1 8.6090762472 1.9629712147 8.1008853539
43 1 11.9087983451 9.6634391848 11.5122093648
44 1 13.6440372779 9.2879358305 11.9920862514
45 1 13.0767751417 9.521354307 10.2655612093
46 1 12.0255988091 13.9131331919 9.0269980244
47 1 11.0257909002 14.2387513286 10.4065888515
48 1 12.5920694532 15.1286554455 10.1732080329
49 1 7.2252448286 9.49343023 3.4139050104
50 1 6.8280877833 10.9712666874 4.2686075877
51 1 5.512466977 9.8600836696 3.8569824989
52 1 5.6487404308 8.0559492242 9.0652445808
53 1 4.3212864393 8.8548187156 8.1680138062
54 1 4.6913502363 7.1002321012 7.8944686381
55 1 12.1082272638 15.2125975914 7.5624536401
56 1 10.8702694089 15.5960776401 6.2886908727
57 1 12.0355900823 14.3158030804 5.998784023
58 1 8.692669805 10.037651422 7.7461047575
59 1 10.2656788801 10.1531015172 6.8818775909
60 1 10.2736410288 10.1882954788 8.6515163917
61 1 0.8688784651 7.6755994903 -0.0944757023
62 1 -0.4181231786 7.1504372435 0.989846911
63 1 1.0806852379 6.0848685316 0.6778626312
64 1 3.3104512081 10.4601287564 4.2243982806
65 1 3.1494160651 10.9163998936 2.5015356683
66 1 1.8079110354 11.3042920226 3.5519694445
67 1 5.7475083735 8.3133205967 13.5307792285
68 1 4.6646200005 8.8508641937 14.8035864021
69 1 5.5978955334 10.0802124731 13.7487388482
70 1 1.4401090491 8.0715380104 9.9083412657
71 1 3.0473187593 7.4456345572 9.2568074876
72 1 2.1821711286 6.6811152212 10.6855028953
73 1 2.3898235092 0.1820967552 11.4637648151
74 1 3.4769260149 -1.1702188235 10.8058447195
75 1 3.8423114677 0.5867871648 10.478389994
76 1 5.9327334281 0.6924485524 14.3329907631
77 1 6.448638957 -0.8587061554 15.1522555647
78 1 6.5119966355 -0.6995922123 13.3280727481
79 1 10.1115651575 6.4458256709 4.0945521995
80 1 8.6808542119 6.6729809054 5.1962337954
81 1 10.3007695831 6.2983929062 5.8653803667
82 1 13.3250905248 10.1762368299 4.0194632736
83 1 12.2572248995 10.017383871 2.5488736205
84 1 12.1305843923 11.4583881601 3.6754080692
85 1 9.3158862947 13.8364531869 -1.8957052891
86 1 9.8922204362 12.1457519207 11.4427636817
87 1 8.8833526612 12.9763854192 12.7233111251
88 1 6.035490174 -2.3847079606 8.2652976749
89 1 6.1604959556 12.3556936497 9.0193357477
90 1 7.6204141692 11.4284963565 8.5142484691
91 1 6.0500512579 1.5587852149 11.6812971473
92 1 7.6634842601 1.9984195906 12.3825775852
93 1 7.3609666418 2.1045261818 10.5950844773
94 1 7.0983631436 6.4574297848 9.7299037528
95 1 6.2061037828 7.592731795 10.8819686484
96 1 7.9193213383 7.2890849948 11.11001297
97 2 1.0085216127 11.5093796654 13.420496257
98 2 4.6401272371 5.2777493795 12.4385381948
99 3 2.9793825999 3.153038356 0.6983202257
100 3 5.149596985 3.2765777425 1.7600792798
101 3 0.8365772232 3.4644300991 -0.0132662821
102 3 11.2388090077 12.3129177366 14.1625680203
103 3 10.493976178 10.0863778687 13.8473938034
104 3 11.5715034252 14.5460334134 13.9960888915
105 3 6.0708733349 6.7392304887 2.4602980876
106 3 3.9584447069 6.6472004861 3.3833051962
107 3 8.0870054579 6.9516094994 1.3219520891
108 3 9.2040143049 1.6139594157 3.6553289482
109 3 9.6821642843 3.8727475704 3.3526959346
110 3 8.8155055016 -0.689833984 3.9690487791
111 3 0.8582155556 3.3682372243 4.3411010891
112 3 1.0232006693 1.0384029972 3.8962248028
113 3 0.2690433679 5.6433529879 4.6961879572
114 3 1.7160037807 10.8132986652 6.8177480134
115 3 0.754326033 8.7009653262 6.2924565754
116 3 2.4477402863 13.0090882971 7.1230004901
117 3 6.2568717558 0.8682169021 6.2658713927
118 3 4.6319197291 0.6522861735 4.5922211505
119 3 7.6343539847 1.487991005 7.9928804682
120 3 12.4562948596 11.9155271399 10.6611908411
121 3 12.9712108121 9.7883917392 11.3189251401
122 3 12.0697647146 14.1777817711 10.0816842618
123 3 5.7209257173 9.1804457259 6.1652418652
124 3 6.5573586383 9.9157126665 4.1684199779
125 3 5.1056459013 8.0886616463 8.130680662
126 3 10.6386246063 12.5626654151 7.1792490691
127 3 11.4569460137 14.8145809376 6.7758047306
128 3 9.6934022256 10.4668575155 7.7660111604
129 3 1.5671940714 8.987978362 1.9553088928
130 3 0.6631867677 7.0725092051 0.7990423218
131 3 2.5877507822 10.5767673113 3.38323664
132 3 3.7132698175 8.1368872867 12.1074838847
133 3 5.0928949529 9.1219806584 13.8410185813
134 3 2.4007532542 7.5949502645 10.1399251942
135 3 3.7504673485 -0.480911966 13.4677717608
136 3 3.4030861036 -0.1410029381 11.1888284382
137 3 5.9951076726 -0.4013141617 14.2633728145
138 3 10.7593852804 8.6762984365 4.1123713408
139 3 9.7611276186 6.7974157719 5.0629086239
140 3 12.3620926648 10.3987469486 3.5697447371
141 3 7.4792058514 11.1239722012 11.1595890138
142 3 9.09966711 12.8723096701 11.6475402156
143 3 6.6183046845 11.3681561222 8.9152286683
144 3 7.0872414428 4.5827101114 11.1049806783
145 3 6.925838644 2.2101130469 11.593466396
146 3 6.9883347138 6.840191941 10.7467770322
147 3 5.7991121743 4.5807870904 6.1044718802
148 3 2.0537507051 3.2907757474 9.1496610163
149 3 11.0040283256 4.8080336715 8.3514238969
150 3 10.6595003938 5.1248176732 12.412454913
151 4 4.175727089 4.8250336271 8.2164614315
152 4 10.014543609 6.6944014264 10.1259797564
153 5 4.0155589702 3.8993134463 1.1024033558
154 5 2.0891616686 3.9996265297 0.2138317971
155 5 2.8492368411 1.9699654657 0.8530711183
156 5 10.3505231158 11.3982264762 14.4409538878
157 5 10.6162104506 13.5005026424 14.1459989628
158 5 12.444216981 12.2787708297 13.9756640043
159 5 5.3218109391 7.1051730686 3.5379865373
160 5 7.2851074463 7.2931882565 2.5174375526
161 5 5.5781329181 6.0655426312 1.546775564
162 5 9.885102498 2.6836130782 4.1534134603
163 5 9.4334472869 0.544002115 4.4598134604
164 5 8.4982185345 1.6012518748 2.6664659255
165 5 0.5021782231 2.137624046 4.7497007391
166 5 0.449238147 4.3211507792 5.2466186228
167 5 1.4229848126 3.5870771581 3.2996143706
168 5 1.3972161438 9.9402127169 5.825361782
169 5 2.3928564799 11.8758096395 6.2455981891
170 5 1.4070146096 10.6925198088 8.0095409526
171 5 6.0398811791 0.9090429947 4.9158005632
172 5 7.4891065317 1.2832822207 6.5473522676
173 5 5.4312505439 0.4674972473 7.0695600312
174 5 13.3133213264 11.2155325162 11.4290609976
175 5 12.7835587041 13.1884132791 10.7678967986
176 5 11.5527543465 11.3743851054 10.0709863486
177 5 6.7948129501 9.1736598878 5.3776378699
178 5 6.1023092284 8.4224063543 7.1928603336
179 5 4.6301661353 9.6703746662 5.9604040201
180 5 10.4677338629 13.9080325138 7.3190451735
181 5 9.5633408039 11.9118802438 7.7043568539
182 5 11.6219679251 12.0808419221 6.6885070259
183 5 1.3438561439 7.6709373283 1.8916101985
184 5 2.0194425587 9.2587065413 3.1858845036
185 5 1.4851189786 9.7931458039 1.0201543522
186 5 3.9990486421 9.1644650515 12.9299946372
187 5 2.9523421041 8.586762015 11.0923828528
188 5 4.0573948566 6.9760397163 12.266871885
189 5 4.2360635122 0.0183198171 12.3777095111
190 5 4.669204046 -0.9572288206 14.2797132414
191 5 2.5865734361 -0.5872499012 13.8135967249
192 5 10.0977866535 8.2292806959 5.1840269371
193 5 11.3575654598 9.7922488705 4.4486930403
194 5 10.7695060716 8.1089755739 3.0203505968
195 5 7.9090699115 12.4160411209 10.9565750983
196 5 6.7059046537 10.6424081889 10.1911948061
197 5 7.7006565062 10.4400584473 12.1526114403
198 5 6.3970596076 3.5593721346 11.7758713291
199 5 6.5737456016 5.7102723047 11.5907438304
200 5 7.9120125935 4.4291776213 10.222653851
201 5 3.747501848 2.8267884597 6.5058338332
202 5 3.2677130396 5.2436870795 6.0887385376
203 5 4.5933716936 2.6429478199 9.5672861414
204 5 3.6613674401 4.4535145896 10.770018269
205 5 -4.0908385621 6.520412873 7.8406927183
206 5 11.3049973941 7.5222956301 8.2287291188
207 5 12.2951670736 6.7918580574 11.1302274913
208 5 10.3307039751 7.8277546829 12.2465071369
209 6 6.7544855201 3.9176372828 6.7942558025
210 6 5.7599122631 4.1447694021 4.753443117
211 6 6.0216950269 5.9169056956 6.1602512387
212 6 1.2380120594 3.0110631427 10.1741816105
213 6 1.4382995106 4.3409893287 8.5055579705
214 6 2.1614832745 2.2270980098 8.3473533497
215 6 11.6346373787 4.6687567054 7.0978474146
216 6 11.9736170215 4.6112300301 9.2230638908
217 6 10.0241804981 3.8381119766 8.4324911611
218 6 9.5919346668 5.141035904 13.2404798778
219 6 10.8494162721 3.9573172157 11.7491955585
220 6 11.7030084077 5.2168271791 13.3137021078
221 7 3.8443280315 3.8341209441 9.488680335
222 7 4.0740811692 4.2405254816 6.7254890563
223 7 10.8616387644 6.7971711006 11.387245187
224 7 10.3151220466 6.5492406497 8.5723513111
225 1 5.6510265176 4.0943055349 15.3344241589
226 1 5.779969269 2.7770587267 14.0979834511
227 1 4.7703920366 2.5473472224 15.5556522864
228 1 0.9132819631 2.3717991345 13.0477330918
229 1 0.1495064604 3.8133362041 13.8400593904
230 1 0.5607845847 3.867568618 12.0792333292
231 1 11.5226571975 9.977360877 26.5903254848
232 1 9.8020640856 10.1645329446 26.0872127473
233 1 10.203982179 9.2857020323 27.6057129062
234 1 12.2651419188 14.4390091635 27.9096863474
235 1 12.03974507 14.457366078 26.078882032
236 1 11.0232530664 15.4791601114 27.1914998683
237 1 3.323217494 7.1948145255 17.1510014787
238 1 3.9244009053 5.5770979346 16.6358947387
239 1 3.6528468893 6.8971355308 15.4437046953
240 1 7.5778986681 6.105357767 13.9359914975
241 1 8.0981026292 7.8159995861 13.7053832136
242 1 9.1008439272 6.735536008 14.7596616502
243 1 9.517182463 3.6015734142 15.3739039604
244 1 10.5846869582 4.4866207404 16.5252231988
245 1 8.7959002662 4.3787126607 16.8222404798
246 1 8.387722374 -0.5409711184 16.0440192957
247 1 9.5822277961 -1.477422796 17.061880937
248 1 7.990607563 -0.944228549 17.71067989
249 1 2.046307723 0.7888525374 17.2808389583
250 1 0.920712363 1.3422676449 15.9300508379
251 1 0.3862709079 0.1700721707 17.2107948341
252 1 1.24315375 6.0900273202 17.5690588034
253 1 -0.3852204149 5.6024505054 16.8970904412
254 1 -0.273409105 6.1608191029 18.5674204765
255 1 -0.2201512926 8.6253537512 18.8408486871
256 1 0.516027986 8.7572036452 20.444407693
257 1 1.4662418996 7.890048712 19.2084925923
258 1 1.460148679 13.4767263017 20.3077808348
259 1 2.7720982276 12.7545346923 21.2021139375
260 1 3.1365832865 13.7159559653 19.7523379001
261 1 4.5923691118 0.7262336731 16.5692818282
262 1 4.0091224916 1.3869084798 18.1695062931
263 1 4.4011917832 -0.3699978984 17.9914950135
264 1 6.7446668852 2.0160441875 21.4175077674
265 1 7.7215027291 0.511167867 21.55545374
266 1 8.6090762472 1.9629712147 21.1728853539
267 1 11.9087983451 9.6634391848 24.5842093648
268 1 13.6440372779 9.2879358305 25.0640862514
269 1 13.0767751417 9.521354307 23.3375612093
270 1 12.0255988091 13.9131331919 22.0989980244
271 1 11.0257909002 14.2387513286 23.4785888515
272 1 12.5920694532 15.1286554455 23.2452080329
273 1 7.2252448286 9.49343023 16.4859050104
274 1 6.8280877833 10.9712666874 17.3406075877
275 1 5.512466977 9.8600836696 16.9289824989
276 1 5.6487404308 8.0559492242 22.1372445808
277 1 4.3212864393 8.8548187156 21.2400138062
278 1 4.6913502363 7.1002321012 20.9664686381
279 1 12.1082272638 15.2125975914 20.6344536401
280 1 10.8702694089 15.5960776401 19.3606908727
281 1 12.0355900823 14.3158030804 19.070784023
282 1 8.692669805 10.037651422 20.8181047575
283 1 10.2656788801 10.1531015172 19.9538775909
284 1 10.2736410288 10.1882954788 21.7235163917
285 1 0.8688784651 7.6755994903 12.9775242977
286 1 -0.4181231786 7.1504372435 14.061846911
287 1 1.0806852379 6.0848685316 13.7498626312
288 1 3.3104512081 10.4601287564 17.2963982806
289 1 3.1494160651 10.9163998936 15.5735356683
290 1 1.8079110354 11.3042920226 16.6239694445
291 1 5.7475083735 8.3133205967 26.6027792285
292 1 4.6646200005 8.8508641937 27.8755864021
293 1 5.5978955334 10.0802124731 26.8207388482
294 1 1.4401090491 8.0715380104 22.9803412657
295 1 3.0473187593 7.4456345572 22.3288074876
296 1 2.1821711286 6.6811152212 23.7575028953
297 1 2.3898235092 0.1820967552 24.5357648151
298 1 3.4769260149 -1.1702188235 23.8778447195
299 1 3.8423114677 0.5867871648 23.550389994
300 1 5.9327334281 0.6924485524 27.4049907631
301 1 6.448638957 -0.8587061554 28.2242555647
302 1 6.5119966355 -0.6995922123 26.4000727481
303 1 10.1115651575 6.4458256709 17.1665521995
304 1 8.6808542119 6.6729809054 18.2682337954
305 1 10.3007695831 6.2983929062 18.9373803667
306 1 13.3250905248 10.1762368299 17.0914632736
307 1 12.2572248995 10.017383871 15.6208736205
308 1 12.1305843923 11.4583881601 16.7474080692
309 1 9.3158862947 13.8364531869 11.1762947109
310 1 9.8922204362 12.1457519207 24.5147636817
311 1 8.8833526612 12.9763854192 25.7953111251
312 1 6.035490174 -2.3847079606 21.3372976749
313 1 6.1604959556 12.3556936497 22.0913357477
314 1 7.6204141692 11.4284963565 21.5862484691
315 1 6.0500512579 1.5587852149 24.7532971473
316 1 7.6634842601 1.9984195906 25.4545775852
317 1 7.3609666418 2.1045261818 23.6670844773
318 1 7.0983631436 6.4574297848 22.8019037528
319 1 6.2061037828 7.592731795 23.9539686484
320 1 7.9193213383 7.2890849948 24.18201297
321 2 1.0085216127 11.5093796654 26.492496257
322 2 4.6401272371 5.2777493795 25.5105381948
323 3 2.9793825999 3.153038356 13.7703202257
324 3 5.149596985 3.2765777425 14.8320792798
325 3 0.8365772232 3.4644300991 13.0587337179
326 3 11.2388090077 12.3129177366 27.2345680203
327 3 10.493976178 10.0863778687 26.9193938034
328 3 11.5715034252 14.5460334134 27.0680888915
329 3 6.0708733349 6.7392304887 15.5322980876
330 3 3.9584447069 6.6472004861 16.4553051962
331 3 8.0870054579 6.9516094994 14.3939520891
332 3 9.2040143049 1.6139594157 16.7273289482
333 3 9.6821642843 3.8727475704 16.4246959346
334 3 8.8155055016 -0.689833984 17.0410487791
335 3 0.8582155556 3.3682372243 17.4131010891
336 3 1.0232006693 1.0384029972 16.9682248028
337 3 0.2690433679 5.6433529879 17.7681879572
338 3 1.7160037807 10.8132986652 19.8897480134
339 3 0.754326033 8.7009653262 19.3644565754
340 3 2.4477402863 13.0090882971 20.1950004901
341 3 6.2568717558 0.8682169021 19.3378713927
342 3 4.6319197291 0.6522861735 17.6642211505
343 3 7.6343539847 1.487991005 21.0648804682
344 3 12.4562948596 11.9155271399 23.7331908411
345 3 12.9712108121 9.7883917392 24.3909251401
346 3 12.0697647146 14.1777817711 23.1536842618
347 3 5.7209257173 9.1804457259 19.2372418652
348 3 6.5573586383 9.9157126665 17.2404199779
349 3 5.1056459013 8.0886616463 21.202680662
350 3 10.6386246063 12.5626654151 20.2512490691
351 3 11.4569460137 14.8145809376 19.8478047306
352 3 9.6934022256 10.4668575155 20.8380111604
353 3 1.5671940714 8.987978362 15.0273088928
354 3 0.6631867677 7.0725092051 13.8710423218
355 3 2.5877507822 10.5767673113 16.45523664
356 3 3.7132698175 8.1368872867 25.1794838847
357 3 5.0928949529 9.1219806584 26.9130185813
358 3 2.4007532542 7.5949502645 23.2119251942
359 3 3.7504673485 -0.480911966 26.5397717608
360 3 3.4030861036 -0.1410029381 24.2608284382
361 3 5.9951076726 -0.4013141617 27.3353728145
362 3 10.7593852804 8.6762984365 17.1843713408
363 3 9.7611276186 6.7974157719 18.1349086239
364 3 12.3620926648 10.3987469486 16.6417447371
365 3 7.4792058514 11.1239722012 24.2315890138
366 3 9.09966711 12.8723096701 24.7195402156
367 3 6.6183046845 11.3681561222 21.9872286683
368 3 7.0872414428 4.5827101114 24.1769806783
369 3 6.925838644 2.2101130469 24.665466396
370 3 6.9883347138 6.840191941 23.8187770322
371 3 5.7991121743 4.5807870904 19.1764718802
372 3 2.0537507051 3.2907757474 22.2216610163
373 3 11.0040283256 4.8080336715 21.4234238969
374 3 10.6595003938 5.1248176732 25.484454913
375 4 4.175727089 4.8250336271 21.2884614315
376 4 10.014543609 6.6944014264 23.1979797564
377 5 4.0155589702 3.8993134463 14.1744033558
378 5 2.0891616686 3.9996265297 13.2858317971
379 5 2.8492368411 1.9699654657 13.9250711183
380 5 10.3505231158 11.3982264762 27.5129538878
381 5 10.6162104506 13.5005026424 27.2179989628
382 5 12.444216981 12.2787708297 27.0476640043
383 5 5.3218109391 7.1051730686 16.6099865373
384 5 7.2851074463 7.2931882565 15.5894375526
385 5 5.5781329181 6.0655426312 14.618775564
386 5 9.885102498 2.6836130782 17.2254134603
387 5 9.4334472869 0.544002115 17.5318134604
388 5 8.4982185345 1.6012518748 15.7384659255
389 5 0.5021782231 2.137624046 17.8217007391
390 5 0.449238147 4.3211507792 18.3186186228
391 5 1.4229848126 3.5870771581 16.3716143706
392 5 1.3972161438 9.9402127169 18.897361782
393 5 2.3928564799 11.8758096395 19.3175981891
394 5 1.4070146096 10.6925198088 21.0815409526
395 5 6.0398811791 0.9090429947 17.9878005632
396 5 7.4891065317 1.2832822207 19.6193522676
397 5 5.4312505439 0.4674972473 20.1415600312
398 5 13.3133213264 11.2155325162 24.5010609976
399 5 12.7835587041 13.1884132791 23.8398967986
400 5 11.5527543465 11.3743851054 23.1429863486
401 5 6.7948129501 9.1736598878 18.4496378699
402 5 6.1023092284 8.4224063543 20.2648603336
403 5 4.6301661353 9.6703746662 19.0324040201
404 5 10.4677338629 13.9080325138 20.3910451735
405 5 9.5633408039 11.9118802438 20.7763568539
406 5 11.6219679251 12.0808419221 19.7605070259
407 5 1.3438561439 7.6709373283 14.9636101985
408 5 2.0194425587 9.2587065413 16.2578845036
409 5 1.4851189786 9.7931458039 14.0921543522
410 5 3.9990486421 9.1644650515 26.0019946372
411 5 2.9523421041 8.586762015 24.1643828528
412 5 4.0573948566 6.9760397163 25.338871885
413 5 4.2360635122 0.0183198171 25.4497095111
414 5 4.669204046 -0.9572288206 27.3517132414
415 5 2.5865734361 -0.5872499012 26.8855967249
416 5 10.0977866535 8.2292806959 18.2560269371
417 5 11.3575654598 9.7922488705 17.5206930403
418 5 10.7695060716 8.1089755739 16.0923505968
419 5 7.9090699115 12.4160411209 24.0285750983
420 5 6.7059046537 10.6424081889 23.2631948061
421 5 7.7006565062 10.4400584473 25.2246114403
422 5 6.3970596076 3.5593721346 24.8478713291
423 5 6.5737456016 5.7102723047 24.6627438304
424 5 7.9120125935 4.4291776213 23.294653851
425 5 3.747501848 2.8267884597 19.5778338332
426 5 3.2677130396 5.2436870795 19.1607385376
427 5 4.5933716936 2.6429478199 22.6392861414
428 5 3.6613674401 4.4535145896 23.842018269
429 5 -4.0908385621 6.520412873 20.9126927183
430 5 11.3049973941 7.5222956301 21.3007291188
431 5 12.2951670736 6.7918580574 24.2022274913
432 5 10.3307039751 7.8277546829 25.3185071369
433 6 6.7544855201 3.9176372828 19.8662558025
434 6 5.7599122631 4.1447694021 17.825443117
435 6 6.0216950269 5.9169056956 19.2322512387
436 6 1.2380120594 3.0110631427 23.2461816105
437 6 1.4382995106 4.3409893287 21.5775579705
438 6 2.1614832745 2.2270980098 21.4193533497
439 6 11.6346373787 4.6687567054 20.1698474146
440 6 11.9736170215 4.6112300301 22.2950638908
441 6 10.0241804981 3.8381119766 21.5044911611
442 6 9.5919346668 5.141035904 26.3124798778
443 6 10.8494162721 3.9573172157 24.8211955585
444 6 11.7030084077 5.2168271791 26.3857021078
445 7 3.8443280315 3.8341209441 22.560680335
446 7 4.0740811692 4.2405254816 19.7974890563
447 7 10.8616387644 6.7971711006 24.459245187
448 7 10.3151220466 6.5492406497 21.6443513111
449 1 5.6510265176 4.0943055349 28.4064241589
450 1 5.779969269 2.7770587267 27.1699834511
451 1 4.7703920366 2.5473472224 28.6276522864
452 1 0.9132819631 2.3717991345 26.1197330918
453 1 0.1495064604 3.8133362041 26.9120593904
454 1 0.5607845847 3.867568618 25.1512333292
455 1 11.5226571975 9.977360877 39.6623254848
456 1 9.8020640856 10.1645329446 39.1592127473
457 1 10.203982179 9.2857020323 40.6777129062
458 1 12.2651419188 14.4390091635 40.9816863474
459 1 12.03974507 14.457366078 39.150882032
460 1 11.0232530664 15.4791601114 40.2634998683
461 1 3.323217494 7.1948145255 30.2230014787
462 1 3.9244009053 5.5770979346 29.7078947387
463 1 3.6528468893 6.8971355308 28.5157046953
464 1 7.5778986681 6.105357767 27.0079914975
465 1 8.0981026292 7.8159995861 26.7773832136
466 1 9.1008439272 6.735536008 27.8316616502
467 1 9.517182463 3.6015734142 28.4459039604
468 1 10.5846869582 4.4866207404 29.5972231988
469 1 8.7959002662 4.3787126607 29.8942404798
470 1 8.387722374 -0.5409711184 29.1160192957
471 1 9.5822277961 -1.477422796 30.133880937
472 1 7.990607563 -0.944228549 30.78267989
473 1 2.046307723 0.7888525374 30.3528389583
474 1 0.920712363 1.3422676449 29.0020508379
475 1 0.3862709079 0.1700721707 30.2827948341
476 1 1.24315375 6.0900273202 30.6410588034
477 1 -0.3852204149 5.6024505054 29.9690904412
478 1 -0.273409105 6.1608191029 31.6394204765
479 1 -0.2201512926 8.6253537512 31.9128486871
480 1 0.516027986 8.7572036452 33.516407693
481 1 1.4662418996 7.890048712 32.2804925923
482 1 1.460148679 13.4767263017 33.3797808348
483 1 2.7720982276 12.7545346923 34.2741139375
484 1 3.1365832865 13.7159559653 32.8243379001
485 1 4.5923691118 0.7262336731 29.6412818282
486 1 4.0091224916 1.3869084798 31.2415062931
487 1 4.4011917832 -0.3699978984 31.0634950135
488 1 6.7446668852 2.0160441875 34.4895077674
489 1 7.7215027291 0.511167867 34.62745374
490 1 8.6090762472 1.9629712147 34.2448853539
491 1 11.9087983451 9.6634391848 37.6562093648
492 1 13.6440372779 9.2879358305 38.1360862514
493 1 13.0767751417 9.521354307 36.4095612093
494 1 12.0255988091 13.9131331919 35.1709980244
495 1 11.0257909002 14.2387513286 36.5505888515
496 1 12.5920694532 15.1286554455 36.3172080329
497 1 7.2252448286 9.49343023 29.5579050104
498 1 6.8280877833 10.9712666874 30.4126075877
499 1 5.512466977 9.8600836696 30.0009824989
500 1 5.6487404308 8.0559492242 35.2092445808
501 1 4.3212864393 8.8548187156 34.3120138062
502 1 4.6913502363 7.1002321012 34.0384686381
503 1 12.1082272638 15.2125975914 33.7064536401
504 1 10.8702694089 15.5960776401 32.4326908727
505 1 12.0355900823 14.3158030804 32.142784023
506 1 8.692669805 10.037651422 33.8901047575
507 1 10.2656788801 10.1531015172 33.0258775909
508 1 10.2736410288 10.1882954788 34.7955163917
509 1 0.8688784651 7.6755994903 26.0495242977
510 1 -0.4181231786 7.1504372435 27.133846911
511 1 1.0806852379 6.0848685316 26.8218626312
512 1 3.3104512081 10.4601287564 30.3683982806
513 1 3.1494160651 10.9163998936 28.6455356683
514 1 1.8079110354 11.3042920226 29.6959694445
515 1 5.7475083735 8.3133205967 39.6747792285
516 1 4.6646200005 8.8508641937 40.9475864021
517 1 5.5978955334 10.0802124731 39.8927388482
518 1 1.4401090491 8.0715380104 36.0523412657
519 1 3.0473187593 7.4456345572 35.4008074876
520 1 2.1821711286 6.6811152212 36.8295028953
521 1 2.3898235092 0.1820967552 37.6077648151
522 1 3.4769260149 -1.1702188235 36.9498447195
523 1 3.8423114677 0.5867871648 36.622389994
524 1 5.9327334281 0.6924485524 40.4769907631
525 1 6.448638957 -0.8587061554 41.2962555647
526 1 6.5119966355 -0.6995922123 39.4720727481
527 1 10.1115651575 6.4458256709 30.2385521995
528 1 8.6808542119 6.6729809054 31.3402337954
529 1 10.3007695831 6.2983929062 32.0093803667
530 1 13.3250905248 10.1762368299 30.1634632736
531 1 12.2572248995 10.017383871 28.6928736205
532 1 12.1305843923 11.4583881601 29.8194080692
533 1 9.3158862947 13.8364531869 24.2482947109
534 1 9.8922204362 12.1457519207 37.5867636817
535 1 8.8833526612 12.9763854192 38.8673111251
536 1 6.035490174 -2.3847079606 34.4092976749
537 1 6.1604959556 12.3556936497 35.1633357477
538 1 7.6204141692 11.4284963565 34.6582484691
539 1 6.0500512579 1.5587852149 37.8252971473
540 1 7.6634842601 1.9984195906 38.5265775852
541 1 7.3609666418 2.1045261818 36.7390844773
542 1 7.0983631436 6.4574297848 35.8739037528
543 1 6.2061037828 7.592731795 37.0259686484
544 1 7.9193213383 7.2890849948 37.25401297
545 2 1.0085216127 11.5093796654 39.564496257
546 2 4.6401272371 5.2777493795 38.5825381948
547 3 2.9793825999 3.153038356 26.8423202257
548 3 5.149596985 3.2765777425 27.9040792798
549 3 0.8365772232 3.4644300991 26.1307337179
550 3 11.2388090077 12.3129177366 40.3065680203
551 3 10.493976178 10.0863778687 39.9913938034
552 3 11.5715034252 14.5460334134 40.1400888915
553 3 6.0708733349 6.7392304887 28.6042980876
554 3 3.9584447069 6.6472004861 29.5273051962
555 3 8.0870054579 6.9516094994 27.4659520891
556 3 9.2040143049 1.6139594157 29.7993289482
557 3 9.6821642843 3.8727475704 29.4966959346
558 3 8.8155055016 -0.689833984 30.1130487791
559 3 0.8582155556 3.3682372243 30.4851010891
560 3 1.0232006693 1.0384029972 30.0402248028
561 3 0.2690433679 5.6433529879 30.8401879572
562 3 1.7160037807 10.8132986652 32.9617480134
563 3 0.754326033 8.7009653262 32.4364565754
564 3 2.4477402863 13.0090882971 33.2670004901
565 3 6.2568717558 0.8682169021 32.4098713927
566 3 4.6319197291 0.6522861735 30.7362211505
567 3 7.6343539847 1.487991005 34.1368804682
568 3 12.4562948596 11.9155271399 36.8051908411
569 3 12.9712108121 9.7883917392 37.4629251401
570 3 12.0697647146 14.1777817711 36.2256842618
571 3 5.7209257173 9.1804457259 32.3092418652
572 3 6.5573586383 9.9157126665 30.3124199779
573 3 5.1056459013 8.0886616463 34.274680662
574 3 10.6386246063 12.5626654151 33.3232490691
575 3 11.4569460137 14.8145809376 32.9198047306
576 3 9.6934022256 10.4668575155 33.9100111604
577 3 1.5671940714 8.987978362 28.0993088928
578 3 0.6631867677 7.0725092051 26.9430423218
579 3 2.5877507822 10.5767673113 29.52723664
580 3 3.7132698175 8.1368872867 38.2514838847
581 3 5.0928949529 9.1219806584 39.9850185813
582 3 2.4007532542 7.5949502645 36.2839251942
583 3 3.7504673485 -0.480911966 39.6117717608
584 3 3.4030861036 -0.1410029381 37.3328284382
585 3 5.9951076726 -0.4013141617 40.4073728145
586 3 10.7593852804 8.6762984365 30.2563713408
587 3 9.7611276186 6.7974157719 31.2069086239
588 3 12.3620926648 10.3987469486 29.7137447371
589 3 7.4792058514 11.1239722012 37.3035890138
590 3 9.09966711 12.8723096701 37.7915402156
591 3 6.6183046845 11.3681561222 35.0592286683
592 3 7.0872414428 4.5827101114 37.2489806783
593 3 6.925838644 2.2101130469 37.737466396
594 3 6.9883347138 6.840191941 36.8907770322
595 3 5.7991121743 4.5807870904 32.2484718802
596 3 2.0537507051 3.2907757474 35.2936610163
597 3 11.0040283256 4.8080336715 34.4954238969
598 3 10.6595003938 5.1248176732 38.556454913
599 4 4.175727089 4.8250336271 34.3604614315
600 4 10.014543609 6.6944014264 36.2699797564
601 5 4.0155589702 3.8993134463 27.2464033558
602 5 2.0891616686 3.9996265297 26.3578317971
603 5 2.8492368411 1.9699654657 26.9970711183
604 5 10.3505231158 11.3982264762 40.5849538878
605 5 10.6162104506 13.5005026424 40.2899989628
606 5 12.444216981 12.2787708297 40.1196640043
607 5 5.3218109391 7.1051730686 29.6819865373
608 5 7.2851074463 7.2931882565 28.6614375526
609 5 5.5781329181 6.0655426312 27.690775564
610 5 9.885102498 2.6836130782 30.2974134603
611 5 9.4334472869 0.544002115 30.6038134604
612 5 8.4982185345 1.6012518748 28.8104659255
613 5 0.5021782231 2.137624046 30.8937007391
614 5 0.449238147 4.3211507792 31.3906186228
615 5 1.4229848126 3.5870771581 29.4436143706
616 5 1.3972161438 9.9402127169 31.969361782
617 5 2.3928564799 11.8758096395 32.3895981891
618 5 1.4070146096 10.6925198088 34.1535409526
619 5 6.0398811791 0.9090429947 31.0598005632
620 5 7.4891065317 1.2832822207 32.6913522676
621 5 5.4312505439 0.4674972473 33.2135600312
622 5 13.3133213264 11.2155325162 37.5730609976
623 5 12.7835587041 13.1884132791 36.9118967986
624 5 11.5527543465 11.3743851054 36.2149863486
625 5 6.7948129501 9.1736598878 31.5216378699
626 5 6.1023092284 8.4224063543 33.3368603336
627 5 4.6301661353 9.6703746662 32.1044040201
628 5 10.4677338629 13.9080325138 33.4630451735
629 5 9.5633408039 11.9118802438 33.8483568539
630 5 11.6219679251 12.0808419221 32.8325070259
631 5 1.3438561439 7.6709373283 28.0356101985
632 5 2.0194425587 9.2587065413 29.3298845036
633 5 1.4851189786 9.7931458039 27.1641543522
634 5 3.9990486421 9.1644650515 39.0739946372
635 5 2.9523421041 8.586762015 37.2363828528
636 5 4.0573948566 6.9760397163 38.410871885
637 5 4.2360635122 0.0183198171 38.5217095111
638 5 4.669204046 -0.9572288206 40.4237132414
639 5 2.5865734361 -0.5872499012 39.9575967249
640 5 10.0977866535 8.2292806959 31.3280269371
641 5 11.3575654598 9.7922488705 30.5926930403
642 5 10.7695060716 8.1089755739 29.1643505968
643 5 7.9090699115 12.4160411209 37.1005750983
644 5 6.7059046537 10.6424081889 36.3351948061
645 5 7.7006565062 10.4400584473 38.2966114403
646 5 6.3970596076 3.5593721346 37.9198713291
647 5 6.5737456016 5.7102723047 37.7347438304
648 5 7.9120125935 4.4291776213 36.366653851