# LAMMPS data file written by OVITO Basic 3.11.0

688 atoms
7 atom types

0.0 13.106 xlo xhi
0.0 13.139 ylo yhi
0.0 62.543530977 zlo zhi

Masses

1 12.0107  # C
2 18.9984032  # F
3 1.00794  # H
4 6.941  # Li
5 14.0067  # N
6 15.9994  # O
7 32.065  # S

Atoms  # atomic

1 1 2.407 8.051 3.648
2 1 8.238 9.072 3.897
3 1 3.899 4.544 3.903
4 1 9.884 7.402 4.032
5 1 3.214 10.207 4.1139999999
6 1 11.6 5.83 4.345
7 1 3.937 12.341 4.775
8 1 4.294 6.621 4.926
9 1 8.336 2.207 5.024
10 1 11.036 12.564 5.133
11 1 11.834 10.439 5.739
12 1 7.915 11.869 5.854
13 1 4.532 8.65 6.086
14 1 12.44 8.238 6.29
15 1 6.031 5.1 6.533
16 1 4.755 3.133 6.676
17 1 0.764 10.571 6.704
18 1 8.894 3.624 6.812
19 1 3.664 1.059 6.834
20 1 7.94 8.624 6.979
21 1 0.74 8.253 7.078
22 1 0.557 5.968 7.592
23 1 9.718 9.952 7.749
24 1 7.239 12.165 8.084
25 1 11.628 11.131 8.441
26 1 9.26 4.995 8.684
27 1 3.251 12.529 9.134
28 1 12.015 7.312 9.741
29 1 1.24 1.016 9.81
30 1 6.739 3.376 9.96
31 1 1.26 8.862 10.032
32 1 6.683 12.639 10.316
33 1 1.846 4.044 10.798
34 1 2.532 12.307 11.359
35 1 8.723 10.556 11.673
36 1 4.464 0.906 12.02
37 1 1.123 0.93 12.154
38 1 8.778 4.388 12.46
39 1 5.038 10.628 12.806
40 1 4.511 3.09 12.884
41 1 2.02 12.09 13.641
42 1 10.752 3.936 13.65
43 1 4.345 5.267 13.75
44 1 1.196 0.941 14.502
45 1 12.605 3.374 14.979
46 1 5.894 8.415 15.0339999999
47 1 5.423 1.138 15.035
48 1 7.564 4.969 15.075
49 1 8.308 12.439 15.079
50 1 7.019 10.475 15.106
51 1 1.75 4.058 15.127
52 1 3.636 2.658 15.154
53 1 9.263 6.577 15.277
54 1 11.101 8.024 15.49
55 1 2.407 8.051 47.097530977
56 1 8.238 9.072 47.346530977
57 1 3.899 4.544 47.352530977
58 1 9.884 7.402 47.481530977
59 1 3.214 10.207 47.563530977
60 1 11.6 5.83 47.794530977
61 1 3.937 12.341 48.224530977
62 1 4.294 6.621 48.375530977
63 1 8.336 2.207 48.473530977
64 1 11.036 12.564 48.582530977
65 1 11.834 10.439 49.188530977
66 1 7.915 11.869 49.303530977
67 1 4.532 8.65 49.535530977
68 1 12.44 8.238 49.739530977
69 1 6.031 5.1 49.982530977
70 1 4.755 3.133 50.125530977
71 1 0.764 10.571 50.153530977
72 1 8.894 3.624 50.261530977
73 1 3.664 1.059 50.283530977
74 1 7.94 8.624 50.428530977
75 1 0.74 8.253 50.527530977
76 1 0.557 5.968 51.041530977
77 1 9.718 9.952 51.198530977
78 1 7.239 12.165 51.533530977
79 1 11.628 11.131 51.890530977
80 1 9.26 4.995 52.133530977
81 1 3.251 12.529 52.583530977
82 1 12.015 7.312 53.190530977
83 1 1.24 1.016 53.259530977
84 1 6.739 3.376 53.409530977
85 1 1.26 8.862 53.481530977
86 1 6.683 12.639 53.765530977
87 1 1.846 4.044 54.247530977
88 1 2.532 12.307 54.808530977
89 1 8.723 10.556 55.122530977
90 1 4.464 0.906 55.469530977
91 1 1.123 0.93 55.603530977
92 1 8.778 4.388 55.909530977
93 1 5.038 10.628 56.255530977
94 1 4.511 3.09 56.333530977
95 1 2.02 12.09 57.090530977
96 1 10.752 3.936 57.099530977
97 1 4.345 5.267 57.199530977
98 1 1.196 0.941 57.951530977
99 1 12.605 3.374 58.428530977
100 1 5.894 8.415 58.483530977
101 1 5.423 1.138 58.484530977
102 1 7.564 4.969 58.524530977
103 1 8.308 12.439 58.528530977
104 1 7.019 10.475 58.555530977
105 1 1.75 4.058 58.576530977
106 1 3.636 2.658 58.603530977
107 1 9.263 6.577 58.726530977
108 1 11.101 8.024 58.939530977
109 2 6.434 3.011 8.713
110 2 11.797 6.393 8.802
111 2 12.611 8.371 9.202
112 2 2.0 9.706 9.3209999999
113 2 0.062 8.746 9.476
114 2 8.055 3.489 10.069
115 2 1.831 7.659 10.094
116 2 0.826 3.461 10.17
117 2 9.297 11.069 10.589
118 2 12.791 6.78 10.696
119 2 6.295 2.485 10.84
120 2 1.557 5.34 10.983
121 2 7.752 9.703 11.342
122 2 2.054 3.447 11.968
123 2 5.041 11.671 11.981
124 2 8.212 11.532 12.408
125 2 6.27 10.134 12.9109999999
126 2 4.615 11.001 14.023
127 2 6.434 3.011 52.162530977
128 2 11.797 6.393 52.251530977
129 2 12.611 8.371 52.651530977
130 2 2.0 9.706 52.770530977
131 2 0.062 8.746 52.925530977
132 2 8.055 3.489 53.518530977
133 2 1.831 7.659 53.543530977
134 2 0.826 3.461 53.619530977
135 2 9.297 11.069 54.038530977
136 2 12.791 6.78 54.145530977
137 2 6.295 2.485 54.289530977
138 2 1.557 5.34 54.432530977
139 2 7.752 9.703 54.791530977
140 2 2.054 3.447 55.417530977
141 2 5.041 11.671 55.430530977
142 2 8.212 11.532 55.857530977
143 2 6.27 10.134 56.360530977
144 2 4.615 11.001 57.472530977
145 3 3.325 4.775 3.002
146 3 3.285 7.94 3.003
147 3 1.508 8.206 3.046
148 3 8.594 9.762 3.127
149 3 11.634 5.757 3.253
150 3 7.597 8.303 3.455
151 3 4.971 4.531 3.682
152 3 3.795 12.634 3.73
153 3 8.053 2.876 4.207
154 3 2.289 7.124 4.218
155 3 3.615 3.547 4.253
156 3 10.372 12.952 4.354
157 3 7.639 9.634 4.62
158 3 12.631 5.866 4.711
159 3 11.109 4.951 4.772
160 3 12.067 12.786 4.838
161 3 7.778 1.271 4.917
162 3 9.403 1.971 4.973
163 3 5.001 12.226 5.0
164 3 8.128 12.533 5.011
165 3 4.821 9.083 5.123
166 3 3.531 0.0 5.406
167 3 13.053 7.893 5.454
168 3 6.03 5.365 5.473
169 3 1.051 10.329 5.675
170 3 6.929 11.423 5.69
171 3 8.685 11.093 5.89
172 3 10.793 13.058 6.077
173 3 7.768 7.983 6.108
174 3 2.896 1.496 6.187
175 3 3.867 0.044 6.477
176 3 3.849 9.349 6.578
177 3 0.007 11.361 6.664
178 3 5.41 8.513 6.723
179 3 11.925 7.375 6.725
180 3 0.0 5.531 6.76
181 3 7.404 9.564 6.816
182 3 6.963 5.457 6.982
183 3 5.2 5.59 7.051
184 3 13.068 8.683 7.068
185 3 1.627 10.942 7.264
186 3 1.634 5.914 7.403
187 3 11.754 11.928 7.7039999999
188 3 3.307 1.002 7.866
189 3 7.558 8.115 7.868
190 3 9.853 5.627 8.014
191 3 0.345 5.389 8.497
192 3 4.058 13.069 8.627
193 3 3.184 11.524 8.71
194 3 12.613 10.856 8.83
195 3 2.32 13.08 8.964
196 3 1.626 1.731 9.076
197 3 11.019 11.479 9.282
198 3 8.639 5.65 9.302
199 3 9.915 4.414 9.34
200 3 1.531 0.008 9.501
201 3 0.15 1.111 9.831
202 3 5.681 13.073 10.275
203 3 6.626 11.554 10.456
204 3 4.656 1.018 10.95
205 3 7.212 13.061 11.177
206 3 9.404 4.38 11.562
207 3 3.834 0.023 12.171
208 3 7.861 3.834 12.235
209 3 5.4 0.748 12.564
210 3 8.51 5.413 12.73
211 3 5.259 5.482 13.187
212 3 1.166 11.486 13.317
213 3 3.659 6.108 13.612
214 3 1.688 13.083 13.954
215 3 7.895 13.04 14.264
216 3 5.832 7.587 14.321
217 3 1.046 4.4 14.362
218 3 6.178 1.632 14.418
219 3 0.0 2.564 14.442
220 3 0.639 0.0 14.451
221 3 7.041 5.705 14.455
222 3 11.29 8.397 14.48
223 3 2.481 11.589 14.497
224 3 7.471 3.993 14.588
225 3 13.019 4.343 14.684
226 3 0.537 1.759 14.804
227 3 4.566 5.168 14.816
228 3 5.516 0.056 14.9
229 3 4.975 9.003 14.949
230 3 9.372 12.673 15.181
231 3 1.98 0.827 15.256
232 3 2.446 4.877 15.335
233 3 10.421 8.693 16.025
234 3 7.816 12.688 16.025
235 3 1.187 3.796 16.027
236 3 12.05 8.002 16.036
237 3 5.991 8.001 16.042
238 3 12.783 3.244 16.051
239 3 7.106 4.91 16.066
240 3 5.588 1.36 16.094
241 3 3.325 4.775 46.451530977
242 3 3.285 7.94 46.452530977
243 3 1.508 8.206 46.495530977
244 3 8.594 9.762 46.576530977
245 3 11.634 5.757 46.702530977
246 3 7.597 8.303 46.904530977
247 3 4.971 4.531 47.131530977
248 3 3.795 12.634 47.179530977
249 3 8.053 2.876 47.656530977
250 3 2.289 7.124 47.667530977
251 3 3.615 3.547 47.702530977
252 3 10.372 12.952 47.803530977
253 3 7.639 9.634 48.069530977
254 3 12.631 5.866 48.160530977
255 3 11.109 4.951 48.221530977
256 3 12.067 12.786 48.287530977
257 3 7.778 1.271 48.366530977
258 3 9.403 1.971 48.422530977
259 3 5.001 12.226 48.449530977
260 3 8.128 12.533 48.460530977
261 3 4.821 9.083 48.572530977
262 3 3.531 0.0 48.855530977
263 3 13.053 7.893 48.903530977
264 3 6.03 5.365 48.922530977
265 3 1.051 10.329 49.124530977
266 3 6.929 11.423 49.139530977
267 3 8.685 11.093 49.339530977
268 3 10.793 13.058 49.526530977
269 3 7.768 7.983 49.557530977
270 3 2.896 1.496 49.636530977
271 3 3.867 0.044 49.926530977
272 3 3.849 9.349 50.027530977
273 3 0.007 11.361 50.113530977
274 3 5.41 8.513 50.172530977
275 3 11.925 7.375 50.174530977
276 3 0.0 5.531 50.209530977
277 3 7.404 9.564 50.265530977
278 3 6.963 5.457 50.431530977
279 3 5.2 5.59 50.500530977
280 3 13.068 8.683 50.517530977
281 3 1.627 10.942 50.713530977
282 3 1.634 5.914 50.852530977
283 3 11.754 11.928 51.153530977
284 3 3.307 1.002 51.315530977
285 3 7.558 8.115 51.317530977
286 3 9.853 5.627 51.463530977
287 3 0.345 5.389 51.946530977
288 3 4.058 13.069 52.076530977
289 3 3.184 11.524 52.159530977
290 3 12.613 10.856 52.279530977
291 3 2.32 13.08 52.413530977
292 3 1.626 1.731 52.525530977
293 3 11.019 11.479 52.731530977
294 3 8.639 5.65 52.751530977
295 3 9.915 4.414 52.789530977
296 3 1.531 0.008 52.950530977
297 3 0.15 1.111 53.280530977
298 3 5.681 13.073 53.724530977
299 3 6.626 11.554 53.905530977
300 3 4.656 1.018 54.399530977
301 3 7.212 13.061 54.626530977
302 3 9.404 4.38 55.011530977
303 3 3.834 0.023 55.620530977
304 3 7.861 3.834 55.684530977
305 3 5.4 0.748 56.013530977
306 3 8.51 5.413 56.179530977
307 3 5.259 5.482 56.636530977
308 3 1.166 11.486 56.766530977
309 3 3.659 6.108 57.061530977
310 3 1.688 13.083 57.403530977
311 3 7.895 13.04 57.713530977
312 3 5.832 7.587 57.770530977
313 3 1.046 4.4 57.811530977
314 3 6.178 1.632 57.867530977
315 3 0.0 2.564 57.891530977
316 3 0.639 0.0 57.900530977
317 3 7.041 5.705 57.904530977
318 3 11.29 8.397 57.929530977
319 3 2.481 11.589 57.946530977
320 3 7.471 3.993 58.037530977
321 3 13.019 4.343 58.133530977
322 3 0.537 1.759 58.253530977
323 3 4.566 5.168 58.265530977
324 3 5.516 0.056 58.349530977
325 3 4.975 9.003 58.398530977
326 3 9.372 12.673 58.630530977
327 3 1.98 0.827 58.705530977
328 3 2.446 4.877 58.784530977
329 3 10.421 8.693 59.474530977
330 3 7.816 12.688 59.474530977
331 3 1.187 3.796 59.476530977
332 3 12.05 8.002 59.485530977
333 3 5.991 8.001 59.491530977
334 3 12.783 3.244 59.500530977
335 3 7.106 4.91 59.515530977
336 3 5.588 1.36 59.543530977
337 4 3.391 6.746 8.828
338 4 2.31 7.037 12.144
339 4 0.546 6.481 13.714
340 4 1.63825 1.642375 20.813656229
341 4 4.91475 1.642375 20.813656229
342 4 8.19125 1.642375 20.813656229
343 4 11.46775 1.642375 20.813656229
344 4 1.63825 4.927125 20.813656229
345 4 4.91475 4.927125 20.813656229
346 4 8.19125 4.927125 20.813656229
347 4 11.46775 4.927125 20.813656229
348 4 1.63825 8.211875 20.813656229
349 4 4.91475 8.211875 20.813656229
350 4 8.19125 8.211875 20.813656229
351 4 11.46775 8.211875 20.813656229
352 4 1.63825 11.496625 20.813656229
353 4 4.91475 11.496625 20.813656229
354 4 8.19125 11.496625 20.813656229
355 4 11.46775 11.496625 20.813656229
356 4 0.0 0.0 22.533312458
357 4 3.2765 0.0 22.533312458
358 4 6.553 0.0 22.533312458
359 4 9.8295 0.0 22.533312458
360 4 0.0 3.28475 22.533312458
361 4 3.2765 3.28475 22.533312458
362 4 6.553 3.28475 22.533312458
363 4 9.8295 3.28475 22.533312458
364 4 0.0 6.5695 22.533312458
365 4 3.2765 6.5695 22.533312458
366 4 6.553 6.5695 22.533312458
367 4 9.8295 6.5695 22.533312458
368 4 0.0 9.85425 22.533312458
369 4 3.2765 9.85425 22.533312458
370 4 6.553 9.85425 22.533312458
371 4 9.8295 9.85425 22.533312458
372 4 1.63825 1.642375 24.252968687
373 4 4.91475 1.642375 24.252968687
374 4 8.19125 1.642375 24.252968687
375 4 11.46775 1.642375 24.252968687
376 4 1.63825 4.927125 24.252968687
377 4 4.91475 4.927125 24.252968687
378 4 8.19125 4.927125 24.252968687
379 4 11.46775 4.927125 24.252968687
380 4 1.63825 8.211875 24.252968687
381 4 4.91475 8.211875 24.252968687
382 4 8.19125 8.211875 24.252968687
383 4 11.46775 8.211875 24.252968687
384 4 1.63825 11.496625 24.252968687
385 4 4.91475 11.496625 24.252968687
386 4 8.19125 11.496625 24.252968687
387 4 11.46775 11.496625 24.252968687
388 4 0.0 0.0 25.972624916
389 4 3.2765 0.0 25.972624916
390 4 6.553 0.0 25.972624916
391 4 9.8295 0.0 25.972624916
392 4 0.0 3.28475 25.972624916
393 4 3.2765 3.28475 25.972624916
394 4 6.553 3.28475 25.972624916
395 4 9.8295 3.28475 25.972624916
396 4 0.0 6.5695 25.972624916
397 4 3.2765 6.5695 25.972624916
398 4 6.553 6.5695 25.972624916
399 4 9.8295 6.5695 25.972624916
400 4 0.0 9.85425 25.972624916
401 4 3.2765 9.85425 25.972624916
402 4 6.553 9.85425 25.972624916
403 4 9.8295 9.85425 25.972624916
404 4 1.63825 1.642375 27.692281145
405 4 4.91475 1.642375 27.692281145
406 4 8.19125 1.642375 27.692281145
407 4 11.46775 1.642375 27.692281145
408 4 1.63825 4.927125 27.692281145
409 4 4.91475 4.927125 27.692281145
410 4 8.19125 4.927125 27.692281145
411 4 11.46775 4.927125 27.692281145
412 4 1.63825 8.211875 27.692281145
413 4 4.91475 8.211875 27.692281145
414 4 8.19125 8.211875 27.692281145
415 4 11.46775 8.211875 27.692281145
416 4 1.63825 11.496625 27.692281145
417 4 4.91475 11.496625 27.692281145
418 4 8.19125 11.496625 27.692281145
419 4 11.46775 11.496625 27.692281145
420 4 0.0 0.0 29.411937374
421 4 3.2765 0.0 29.411937374
422 4 6.553 0.0 29.411937374
423 4 9.8295 0.0 29.411937374
424 4 0.0 3.28475 29.411937374
425 4 3.2765 3.28475 29.411937374
426 4 6.553 3.28475 29.411937374
427 4 9.8295 3.28475 29.411937374
428 4 0.0 6.5695 29.411937374
429 4 3.2765 6.5695 29.411937374
430 4 6.553 6.5695 29.411937374
431 4 9.8295 6.5695 29.411937374
432 4 0.0 9.85425 29.411937374
433 4 3.2765 9.85425 29.411937374
434 4 6.553 9.85425 29.411937374
435 4 9.8295 9.85425 29.411937374
436 4 1.63825 1.642375 31.131593603
437 4 4.91475 1.642375 31.131593603
438 4 8.19125 1.642375 31.131593603
439 4 11.46775 1.642375 31.131593603
440 4 1.63825 4.927125 31.131593603
441 4 4.91475 4.927125 31.131593603
442 4 8.19125 4.927125 31.131593603
443 4 11.46775 4.927125 31.131593603
444 4 1.63825 8.211875 31.131593603
445 4 4.91475 8.211875 31.131593603
446 4 8.19125 8.211875 31.131593603
447 4 11.46775 8.211875 31.131593603
448 4 1.63825 11.496625 31.131593603
449 4 4.91475 11.496625 31.131593603
450 4 8.19125 11.496625 31.131593603
451 4 11.46775 11.496625 31.131593603
452 4 0.0 0.0 32.851249832
453 4 3.2765 0.0 32.851249832
454 4 6.553 0.0 32.851249832
455 4 9.8295 0.0 32.851249832
456 4 0.0 3.28475 32.851249832
457 4 3.2765 3.28475 32.851249832
458 4 6.553 3.28475 32.851249832
459 4 9.8295 3.28475 32.851249832
460 4 0.0 6.5695 32.851249832
461 4 3.2765 6.5695 32.851249832
462 4 6.553 6.5695 32.851249832
463 4 9.8295 6.5695 32.851249832
464 4 0.0 9.85425 32.851249832
465 4 3.2765 9.85425 32.851249832
466 4 6.553 9.85425 32.851249832
467 4 9.8295 9.85425 32.851249832
468 4 1.63825 1.642375 34.570906061
469 4 4.91475 1.642375 34.570906061
470 4 8.19125 1.642375 34.570906061
471 4 11.46775 1.642375 34.570906061
472 4 1.63825 4.927125 34.570906061
473 4 4.91475 4.927125 34.570906061
474 4 8.19125 4.927125 34.570906061
475 4 11.46775 4.927125 34.570906061
476 4 1.63825 8.211875 34.570906061
477 4 4.91475 8.211875 34.570906061
478 4 8.19125 8.211875 34.570906061
479 4 11.46775 8.211875 34.570906061
480 4 1.63825 11.496625 34.570906061
481 4 4.91475 11.496625 34.570906061
482 4 8.19125 11.496625 34.570906061
483 4 11.46775 11.496625 34.570906061
484 4 0.0 0.0 36.29056229
485 4 3.2765 0.0 36.29056229
486 4 6.553 0.0 36.29056229
487 4 9.8295 0.0 36.29056229
488 4 0.0 3.28475 36.29056229
489 4 3.2765 3.28475 36.29056229
490 4 6.553 3.28475 36.29056229
491 4 9.8295 3.28475 36.29056229
492 4 0.0 6.5695 36.29056229
493 4 3.2765 6.5695 36.29056229
494 4 6.553 6.5695 36.29056229
495 4 9.8295 6.5695 36.29056229
496 4 0.0 9.85425 36.29056229
497 4 3.2765 9.85425 36.29056229
498 4 6.553 9.85425 36.29056229
499 4 9.8295 9.85425 36.29056229
500 4 1.63825 1.642375 38.010218519
501 4 4.91475 1.642375 38.010218519
502 4 8.19125 1.642375 38.010218519
503 4 11.46775 1.642375 38.010218519
504 4 1.63825 4.927125 38.010218519
505 4 4.91475 4.927125 38.010218519
506 4 8.19125 4.927125 38.010218519
507 4 11.46775 4.927125 38.010218519
508 4 1.63825 8.211875 38.010218519
509 4 4.91475 8.211875 38.010218519
510 4 8.19125 8.211875 38.010218519
511 4 11.46775 8.211875 38.010218519
512 4 1.63825 11.496625 38.010218519
513 4 4.91475 11.496625 38.010218519
514 4 8.19125 11.496625 38.010218519
515 4 11.46775 11.496625 38.010218519
516 4 0.0 0.0 39.729874748
517 4 3.2765 0.0 39.729874748
518 4 6.553 0.0 39.729874748
519 4 9.8295 0.0 39.729874748
520 4 0.0 3.28475 39.729874748
521 4 3.2765 3.28475 39.729874748
522 4 6.553 3.28475 39.729874748
523 4 9.8295 3.28475 39.729874748
524 4 0.0 6.5695 39.729874748
525 4 3.2765 6.5695 39.729874748
526 4 6.553 6.5695 39.729874748
527 4 9.8295 6.5695 39.729874748
528 4 0.0 9.85425 39.729874748
529 4 3.2765 9.85425 39.729874748
530 4 6.553 9.85425 39.729874748
531 4 9.8295 9.85425 39.729874748
532 4 1.63825 1.642375 41.449530977
533 4 4.91475 1.642375 41.449530977
534 4 8.19125 1.642375 41.449530977
535 4 11.46775 1.642375 41.449530977
536 4 1.63825 4.927125 41.449530977
537 4 4.91475 4.927125 41.449530977
538 4 8.19125 4.927125 41.449530977
539 4 11.46775 4.927125 41.449530977
540 4 1.63825 8.211875 41.449530977
541 4 4.91475 8.211875 41.449530977
542 4 8.19125 8.211875 41.449530977
543 4 11.46775 8.211875 41.449530977
544 4 1.63825 11.496625 41.449530977
545 4 4.91475 11.496625 41.449530977
546 4 8.19125 11.496625 41.449530977
547 4 11.46775 11.496625 41.449530977
548 4 3.391 6.746 52.277530977
549 4 2.31 7.037 55.593530977
550 4 0.546 6.481 57.163530977
551 5 4.434 4.696 10.673
552 5 10.904 8.882 11.595
553 5 2.501 10.114 12.143
554 5 4.434 4.696 54.122530977
555 5 10.904 8.882 55.044530977
556 5 2.501 10.114 55.592530977
557 6 3.7 10.326 3.0
558 6 9.484 6.847 3.021
559 6 5.191 6.898 4.146
560 6 2.542 9.124 4.579
561 6 9.358 8.521 4.59
562 6 10.934 7.009 4.796
563 6 3.562 5.479 4.928
564 6 3.252 11.133 5.104
565 6 10.792 11.163 5.257
566 6 11.446 9.141 5.805
567 6 3.853 7.402 5.945
568 6 12.927 10.879 6.058
569 6 7.964 2.799 6.268
570 6 1.639 8.057 6.275
571 6 9.988 3.885 6.337
572 6 3.701 3.744 6.591
573 6 5.997 3.679 6.665
574 6 4.89 1.789 6.798
575 6 7.974 12.646 7.05
576 6 9.349 8.812 7.112
577 6 0.198 9.456 7.392
578 6 11.073 9.981 7.802
579 6 0.106 7.304 7.813
580 6 8.394 4.108 7.977
581 6 6.551 11.157 8.068
582 6 8.963 10.802 8.196
583 6 3.021 4.605 8.497
584 6 6.132 5.835 9.08
585 6 7.403 13.003 9.139
586 6 9.642 8.427 9.37
587 6 3.621 2.452 9.643
588 6 3.589 12.436 10.518
589 6 4.433 9.011 10.798
590 6 1.356 12.271 11.034
591 6 9.843 6.575 11.055
592 6 1.842 1.315 11.07
593 6 6.69 5.544 11.495
594 6 0.056 10.606 11.635
595 6 0.037 0.372 12.135
596 6 3.742 2.044 12.4909999999
597 6 0.632 8.375 12.593
598 6 3.014 12.224 12.625
599 6 11.438 4.57 12.864
600 6 5.732 3.128 12.872
601 6 3.981 8.229 13.142
602 6 1.824 1.273 13.264
603 6 3.686 4.086 13.293
604 6 10.775 10.72 13.353
605 6 9.409 3.757 13.574
606 6 9.253 8.757 13.59
607 6 4.123 1.525 14.589
608 6 2.408 2.894 14.628
609 6 7.062 9.175 14.722
610 6 8.193 11.055 14.749
611 6 11.198 3.288 14.755
612 6 8.955 5.258 15.213
613 6 8.47 7.504 15.222
614 6 10.608 6.686 15.414
615 6 6.089 11.027 15.673
616 6 4.203 3.345 15.99
617 6 3.7 10.326 46.449530977
618 6 9.484 6.847 46.470530977
619 6 5.191 6.898 47.595530977
620 6 2.542 9.124 48.028530977
621 6 9.358 8.521 48.039530977
622 6 10.934 7.009 48.245530977
623 6 3.562 5.479 48.377530977
624 6 3.252 11.133 48.553530977
625 6 10.792 11.163 48.706530977
626 6 11.446 9.141 49.254530977
627 6 3.853 7.402 49.394530977
628 6 12.927 10.879 49.507530977
629 6 7.964 2.799 49.717530977
630 6 1.639 8.057 49.724530977
631 6 9.988 3.885 49.786530977
632 6 3.701 3.744 50.040530977
633 6 5.997 3.679 50.114530977
634 6 4.89 1.789 50.247530977
635 6 7.974 12.646 50.499530977
636 6 9.349 8.812 50.561530977
637 6 0.198 9.456 50.841530977
638 6 11.073 9.981 51.251530977
639 6 0.106 7.304 51.262530977
640 6 8.394 4.108 51.426530977
641 6 6.551 11.157 51.517530977
642 6 8.963 10.802 51.645530977
643 6 3.021 4.605 51.946530977
644 6 6.132 5.835 52.529530977
645 6 7.403 13.003 52.588530977
646 6 9.642 8.427 52.819530977
647 6 3.621 2.452 53.092530977
648 6 3.589 12.436 53.967530977
649 6 4.433 9.011 54.247530977
650 6 1.356 12.271 54.483530977
651 6 9.843 6.575 54.504530977
652 6 1.842 1.315 54.519530977
653 6 6.69 5.544 54.944530977
654 6 0.056 10.606 55.084530977
655 6 0.037 0.372 55.584530977
656 6 3.742 2.044 55.940530977
657 6 0.632 8.375 56.042530977
658 6 3.014 12.224 56.074530977
659 6 11.438 4.57 56.313530977
660 6 5.732 3.128 56.321530977
661 6 3.981 8.229 56.591530977
662 6 1.824 1.273 56.713530977
663 6 3.686 4.086 56.742530977
664 6 10.775 10.72 56.802530977
665 6 9.409 3.757 57.023530977
666 6 9.253 8.757 57.039530977
667 6 4.123 1.525 58.038530977
668 6 2.408 2.894 58.077530977
669 6 7.062 9.175 58.171530977
670 6 8.193 11.055 58.198530977
671 6 11.198 3.288 58.204530977
672 6 8.955 5.258 58.662530977
673 6 8.47 7.504 58.671530977
674 6 10.608 6.686 58.863530977
675 6 6.089 11.027 59.122530977
676 6 4.203 3.345 59.439530977
677 7 3.369 3.899 9.744
678 7 5.973 5.033 10.306
679 7 10.389 7.819 10.482
680 7 1.048 9.517 11.759
681 7 3.911 9.31 12.141
682 7 9.994 9.655 12.686
683 7 3.369 3.899 53.193530977
684 7 5.973 5.033 53.755530977
685 7 10.389 7.819 53.931530977
686 7 1.048 9.517 55.208530977
687 7 3.911 9.31 55.590530977
688 7 9.994 9.655 56.135530977
