LAMMPS Description

     19600  atoms
     17850  bonds
     28175  angles
     18200  dihedrals
     4200  impropers

     18  atom types
     25  bond types
     42  angle types
     34  dihedral types
     3  improper types

  -5.0 340.12 xlo xhi
  -5.0 340.12 ylo yhi
  -5.0 340.12 zlo zhi

Masses

1 15.999  # type1
2 12.011  # type2
3 1.008  # type3
4 1.008  # type4
5 1.008  # type5
6 12.011  # type6
7 15.999  # type7
8 15.999  # type8
9 12.011  # type9
10 1.008  # type10
11 1.008  # type11
12 1.008  # type12
13 6.9410  # Li
14 14.007  # N
15 32.066  # S
16 12.011  # C
17 18.998  # F
18 15.999  # O

Atoms  # full

1 1 1 -0.31630000 51.0 121.0 104.0
2 1 2 -0.06950000 49.573 121.0 104.0
3 1 3 0.11730000 49.237 121.0 105.04201
4 1 4 0.11730000 49.213 121.56397 103.13526
5 1 5 0.11730000 49.153 119.98898 104.0
6 1 6 0.56780000 51.573 120.46783 102.89126
7 1 7 -0.49560000 50.98 120.00599 101.92904
8 1 8 -0.31870000 52.919 120.54169 103.04137
9 1 9 -0.04600000 53.677 120.01693 101.95133
10 1 10 0.10880000 53.202 120.20112 100.98274
11 1 11 0.10880000 53.833 118.94552 102.1039
12 1 12 0.10880000 54.650999999999996 120.51711 101.94831
13 2 1 -0.31630000 51.0 121.0 116.0
14 2 2 -0.06950000 49.573 121.0 116.0
15 2 3 0.11730000 49.237 121.0 117.04201
16 2 4 0.11730000 49.213 121.56397 115.13526
17 2 5 0.11730000 49.153 119.98898 116.0
18 2 6 0.56780000 51.573 120.46783 114.89126
19 2 7 -0.49560000 50.98 120.00599 113.92904
20 2 8 -0.31870000 52.919 120.54169 115.04137
21 2 9 -0.04600000 53.677 120.01693 113.95133
22 2 10 0.10880000 53.202 120.20112 112.98274
23 2 11 0.10880000 53.833 118.94552 114.1039
24 2 12 0.10880000 54.650999999999996 120.51711 113.94831
25 3 1 -0.31630000 51.0 121.0 128.0
26 3 2 -0.06950000 49.573 121.0 128.0
27 3 3 0.11730000 49.237 121.0 129.04201
28 3 4 0.11730000 49.213 121.56397 127.13526
29 3 5 0.11730000 49.153 119.98898 128.0
30 3 6 0.56780000 51.573 120.46783 126.89126
31 3 7 -0.49560000 50.98 120.00599 125.92904
32 3 8 -0.31870000 52.919 120.54169 127.04137
33 3 9 -0.04600000 53.677 120.01693 125.95133
34 3 10 0.10880000 53.202 120.20112 124.98274
35 3 11 0.10880000 53.833 118.94552 126.1039
36 3 12 0.10880000 54.650999999999996 120.51711 125.94831
37 4 1 -0.31630000 51.0 121.0 140.0
38 4 2 -0.06950000 49.573 121.0 140.0
39 4 3 0.11730000 49.237 121.0 141.04201
40 4 4 0.11730000 49.213 121.56397 139.13526
41 4 5 0.11730000 49.153 119.98898 140.0
42 4 6 0.56780000 51.573 120.46783 138.89126
43 4 7 -0.49560000 50.98 120.00599 137.92904
44 4 8 -0.31870000 52.919 120.54169 139.04137
45 4 9 -0.04600000 53.677 120.01693 137.95133
46 4 10 0.10880000 53.202 120.20112 136.98274
47 4 11 0.10880000 53.833 118.94552 138.1039
48 4 12 0.10880000 54.650999999999996 120.51711 137.94831
49 5 1 -0.31630000 51.0 121.0 152.0
50 5 2 -0.06950000 49.573 121.0 152.0
51 5 3 0.11730000 49.237 121.0 153.04201
52 5 4 0.11730000 49.213 121.56397 151.13526
53 5 5 0.11730000 49.153 119.98898 152.0
54 5 6 0.56780000 51.573 120.46783 150.89126
55 5 7 -0.49560000 50.98 120.00599 149.92904
56 5 8 -0.31870000 52.919 120.54169 151.04137
57 5 9 -0.04600000 53.677 120.01693 149.95133
58 5 10 0.10880000 53.202 120.20112 148.98274
59 5 11 0.10880000 53.833 118.94552 150.1039
60 5 12 0.10880000 54.650999999999996 120.51711 149.94831
61 6 1 -0.31630000 51.0 121.0 164.0
62 6 2 -0.06950000 49.573 121.0 164.0
63 6 3 0.11730000 49.237 121.0 165.04201
64 6 4 0.11730000 49.213 121.56397 163.13526
65 6 5 0.11730000 49.153 119.98898 164.0
66 6 6 0.56780000 51.573 120.46783 162.89126
67 6 7 -0.49560000 50.98 120.00599 161.92904
68 6 8 -0.31870000 52.919 120.54169 163.04137
69 6 9 -0.04600000 53.677 120.01693 161.95133
70 6 10 0.10880000 53.202 120.20112 160.98274
71 6 11 0.10880000 53.833 118.94552 162.1039
72 6 12 0.10880000 54.650999999999996 120.51711 161.94831
73 7 1 -0.31630000 51.0 121.0 176.0
74 7 2 -0.06950000 49.573 121.0 176.0
75 7 3 0.11730000 49.237 121.0 177.04201
76 7 4 0.11730000 49.213 121.56397 175.13526
77 7 5 0.11730000 49.153 119.98898 176.0
78 7 6 0.56780000 51.573 120.46783 174.89126
79 7 7 -0.49560000 50.98 120.00599 173.92904
80 7 8 -0.31870000 52.919 120.54169 175.04137
81 7 9 -0.04600000 53.677 120.01693 173.95133
82 7 10 0.10880000 53.202 120.20112 172.98274
83 7 11 0.10880000 53.833 118.94552 174.1039
84 7 12 0.10880000 54.650999999999996 120.51711 173.94831
85 8 1 -0.31630000 51.0 121.0 188.0
86 8 2 -0.06950000 49.573 121.0 188.0
87 8 3 0.11730000 49.237 121.0 189.04201
88 8 4 0.11730000 49.213 121.56397 187.13526
89 8 5 0.11730000 49.153 119.98898 188.0
90 8 6 0.56780000 51.573 120.46783 186.89126
91 8 7 -0.49560000 50.98 120.00599 185.92904
92 8 8 -0.31870000 52.919 120.54169 187.04137
93 8 9 -0.04600000 53.677 120.01693 185.95133
94 8 10 0.10880000 53.202 120.20112 184.98274
95 8 11 0.10880000 53.833 118.94552 186.1039
96 8 12 0.10880000 54.650999999999996 120.51711 185.94831
97 9 1 -0.31630000 51.0 121.0 200.0
98 9 2 -0.06950000 49.573 121.0 200.0
99 9 3 0.11730000 49.237 121.0 201.04201
100 9 4 0.11730000 49.213 121.56397 199.13526
101 9 5 0.11730000 49.153 119.98898 200.0
102 9 6 0.56780000 51.573 120.46783 198.89126
103 9 7 -0.49560000 50.98 120.00599 197.92904
104 9 8 -0.31870000 52.919 120.54169 199.04137
105 9 9 -0.04600000 53.677 120.01693 197.95133
106 9 10 0.10880000 53.202 120.20112 196.98274
107 9 11 0.10880000 53.833 118.94552 198.1039
108 9 12 0.10880000 54.650999999999996 120.51711 197.94831
109 10 1 -0.31630000 51.0 121.0 212.0
110 10 2 -0.06950000 49.573 121.0 212.0
111 10 3 0.11730000 49.237 121.0 213.04201
112 10 4 0.11730000 49.213 121.56397 211.13526
113 10 5 0.11730000 49.153 119.98898 212.0
114 10 6 0.56780000 51.573 120.46783 210.89126
115 10 7 -0.49560000 50.98 120.00599 209.92904
116 10 8 -0.31870000 52.919 120.54169 211.04137
117 10 9 -0.04600000 53.677 120.01693 209.95133
118 10 10 0.10880000 53.202 120.20112 208.98274
119 10 11 0.10880000 53.833 118.94552 210.1039
120 10 12 0.10880000 54.650999999999996 120.51711 209.94831
121 11 1 -0.31630000 51.0 121.0 224.0
122 11 2 -0.06950000 49.573 121.0 224.0
123 11 3 0.11730000 49.237 121.0 225.04201
124 11 4 0.11730000 49.213 121.56397 223.13526
125 11 5 0.11730000 49.153 119.98898 224.0
126 11 6 0.56780000 51.573 120.46783 222.89126
127 11 7 -0.49560000 50.98 120.00599 221.92904
128 11 8 -0.31870000 52.919 120.54169 223.04137
129 11 9 -0.04600000 53.677 120.01693 221.95133
130 11 10 0.10880000 53.202 120.20112 220.98274
131 11 11 0.10880000 53.833 118.94552 222.1039
132 11 12 0.10880000 54.650999999999996 120.51711 221.94831
133 12 1 -0.31630000 51.0 121.0 236.0
134 12 2 -0.06950000 49.573 121.0 236.0
135 12 3 0.11730000 49.237 121.0 237.04201
136 12 4 0.11730000 49.213 121.56397 235.13526
137 12 5 0.11730000 49.153 119.98898 236.0
138 12 6 0.56780000 51.573 120.46783 234.89126
139 12 7 -0.49560000 50.98 120.00599 233.92904
140 12 8 -0.31870000 52.919 120.54169 235.04137
141 12 9 -0.04600000 53.677 120.01693 233.95133
142 12 10 0.10880000 53.202 120.20112 232.98274
143 12 11 0.10880000 53.833 118.94552 234.1039
144 12 12 0.10880000 54.650999999999996 120.51711 233.94831
145 13 1 -0.31630000 51.0 121.0 248.0
146 13 2 -0.06950000 49.573 121.0 248.0
147 13 3 0.11730000 49.237 121.0 249.04201
148 13 4 0.11730000 49.213 121.56397 247.13526
149 13 5 0.11730000 49.153 119.98898 248.0
150 13 6 0.56780000 51.573 120.46783 246.89126
151 13 7 -0.49560000 50.98 120.00599 245.92904
152 13 8 -0.31870000 52.919 120.54169 247.04137
153 13 9 -0.04600000 53.677 120.01693 245.95133
154 13 10 0.10880000 53.202 120.20112 244.98274
155 13 11 0.10880000 53.833 118.94552 246.1039
156 13 12 0.10880000 54.650999999999996 120.51711 245.94831
157 14 1 -0.31630000 51.0 121.0 260.0
158 14 2 -0.06950000 49.573 121.0 260.0
159 14 3 0.11730000 49.237 121.0 261.04201
160 14 4 0.11730000 49.213 121.56397 259.13526
161 14 5 0.11730000 49.153 119.98898 260.0
162 14 6 0.56780000 51.573 120.46783 258.89126
163 14 7 -0.49560000 50.98 120.00599 257.92904
164 14 8 -0.31870000 52.919 120.54169 259.04137
165 14 9 -0.04600000 53.677 120.01693 257.95133
166 14 10 0.10880000 53.202 120.20112 256.98274
167 14 11 0.10880000 53.833 118.94552 258.1039
168 14 12 0.10880000 54.650999999999996 120.51711 257.94831
169 15 1 -0.31630000 51.0 136.0 104.0
170 15 2 -0.06950000 49.573 136.0 104.0
171 15 3 0.11730000 49.237 136.0 105.04201
172 15 4 0.11730000 49.213 136.56397 103.13526
173 15 5 0.11730000 49.153 134.98898 104.0
174 15 6 0.56780000 51.573 135.46783 102.89126
175 15 7 -0.49560000 50.98 135.00599 101.92904
176 15 8 -0.31870000 52.919 135.54169 103.04137
177 15 9 -0.04600000 53.677 135.01693 101.95133
178 15 10 0.10880000 53.202 135.20112 100.98274
179 15 11 0.10880000 53.833 133.94552 102.1039
180 15 12 0.10880000 54.650999999999996 135.51711 101.94831
181 16 1 -0.31630000 51.0 136.0 116.0
182 16 2 -0.06950000 49.573 136.0 116.0
183 16 3 0.11730000 49.237 136.0 117.04201
184 16 4 0.11730000 49.213 136.56397 115.13526
185 16 5 0.11730000 49.153 134.98898 116.0
186 16 6 0.56780000 51.573 135.46783 114.89126
187 16 7 -0.49560000 50.98 135.00599 113.92904
188 16 8 -0.31870000 52.919 135.54169 115.04137
189 16 9 -0.04600000 53.677 135.01693 113.95133
190 16 10 0.10880000 53.202 135.20112 112.98274
191 16 11 0.10880000 53.833 133.94552 114.1039
192 16 12 0.10880000 54.650999999999996 135.51711 113.94831
193 17 1 -0.31630000 51.0 136.0 128.0
194 17 2 -0.06950000 49.573 136.0 128.0
195 17 3 0.11730000 49.237 136.0 129.04201
196 17 4 0.11730000 49.213 136.56397 127.13526
197 17 5 0.11730000 49.153 134.98898 128.0
198 17 6 0.56780000 51.573 135.46783 126.89126
199 17 7 -0.49560000 50.98 135.00599 125.92904
200 17 8 -0.31870000 52.919 135.54169 127.04137
201 17 9 -0.04600000 53.677 135.01693 125.95133
202 17 10 0.10880000 53.202 135.20112 124.98274
203 17 11 0.10880000 53.833 133.94552 126.1039
204 17 12 0.10880000 54.650999999999996 135.51711 125.94831
205 18 1 -0.31630000 51.0 136.0 140.0
206 18 2 -0.06950000 49.573 136.0 140.0
207 18 3 0.11730000 49.237 136.0 141.04201
208 18 4 0.11730000 49.213 136.56397 139.13526
209 18 5 0.11730000 49.153 134.98898 140.0
210 18 6 0.56780000 51.573 135.46783 138.89126
211 18 7 -0.49560000 50.98 135.00599 137.92904
212 18 8 -0.31870000 52.919 135.54169 139.04137
213 18 9 -0.04600000 53.677 135.01693 137.95133
214 18 10 0.10880000 53.202 135.20112 136.98274
215 18 11 0.10880000 53.833 133.94552 138.1039
216 18 12 0.10880000 54.650999999999996 135.51711 137.94831
217 19 1 -0.31630000 51.0 136.0 152.0
218 19 2 -0.06950000 49.573 136.0 152.0
219 19 3 0.11730000 49.237 136.0 153.04201
220 19 4 0.11730000 49.213 136.56397 151.13526
221 19 5 0.11730000 49.153 134.98898 152.0
222 19 6 0.56780000 51.573 135.46783 150.89126
223 19 7 -0.49560000 50.98 135.00599 149.92904
224 19 8 -0.31870000 52.919 135.54169 151.04137
225 19 9 -0.04600000 53.677 135.01693 149.95133
226 19 10 0.10880000 53.202 135.20112 148.98274
227 19 11 0.10880000 53.833 133.94552 150.1039
228 19 12 0.10880000 54.650999999999996 135.51711 149.94831
229 20 1 -0.31630000 51.0 136.0 164.0
230 20 2 -0.06950000 49.573 136.0 164.0
231 20 3 0.11730000 49.237 136.0 165.04201
232 20 4 0.11730000 49.213 136.56397 163.13526
233 20 5 0.11730000 49.153 134.98898 164.0
234 20 6 0.56780000 51.573 135.46783 162.89126
235 20 7 -0.49560000 50.98 135.00599 161.92904
236 20 8 -0.31870000 52.919 135.54169 163.04137
237 20 9 -0.04600000 53.677 135.01693 161.95133
238 20 10 0.10880000 53.202 135.20112 160.98274
239 20 11 0.10880000 53.833 133.94552 162.1039
240 20 12 0.10880000 54.650999999999996 135.51711 161.94831
241 21 1 -0.31630000 51.0 136.0 176.0
242 21 2 -0.06950000 49.573 136.0 176.0
243 21 3 0.11730000 49.237 136.0 177.04201
244 21 4 0.11730000 49.213 136.56397 175.13526
245 21 5 0.11730000 49.153 134.98898 176.0
246 21 6 0.56780000 51.573 135.46783 174.89126
247 21 7 -0.49560000 50.98 135.00599 173.92904
248 21 8 -0.31870000 52.919 135.54169 175.04137
249 21 9 -0.04600000 53.677 135.01693 173.95133
250 21 10 0.10880000 53.202 135.20112 172.98274
251 21 11 0.10880000 53.833 133.94552 174.1039
252 21 12 0.10880000 54.650999999999996 135.51711 173.94831
253 22 1 -0.31630000 51.0 136.0 188.0
254 22 2 -0.06950000 49.573 136.0 188.0
255 22 3 0.11730000 49.237 136.0 189.04201
256 22 4 0.11730000 49.213 136.56397 187.13526
257 22 5 0.11730000 49.153 134.98898 188.0
258 22 6 0.56780000 51.573 135.46783 186.89126
259 22 7 -0.49560000 50.98 135.00599 185.92904
260 22 8 -0.31870000 52.919 135.54169 187.04137
261 22 9 -0.04600000 53.677 135.01693 185.95133
262 22 10 0.10880000 53.202 135.20112 184.98274
263 22 11 0.10880000 53.833 133.94552 186.1039
264 22 12 0.10880000 54.650999999999996 135.51711 185.94831
265 23 1 -0.31630000 51.0 136.0 200.0
266 23 2 -0.06950000 49.573 136.0 200.0
267 23 3 0.11730000 49.237 136.0 201.04201
268 23 4 0.11730000 49.213 136.56397 199.13526
269 23 5 0.11730000 49.153 134.98898 200.0
270 23 6 0.56780000 51.573 135.46783 198.89126
271 23 7 -0.49560000 50.98 135.00599 197.92904
272 23 8 -0.31870000 52.919 135.54169 199.04137
273 23 9 -0.04600000 53.677 135.01693 197.95133
274 23 10 0.10880000 53.202 135.20112 196.98274
275 23 11 0.10880000 53.833 133.94552 198.1039
276 23 12 0.10880000 54.650999999999996 135.51711 197.94831
277 24 1 -0.31630000 51.0 136.0 212.0
278 24 2 -0.06950000 49.573 136.0 212.0
279 24 3 0.11730000 49.237 136.0 213.04201
280 24 4 0.11730000 49.213 136.56397 211.13526
281 24 5 0.11730000 49.153 134.98898 212.0
282 24 6 0.56780000 51.573 135.46783 210.89126
283 24 7 -0.49560000 50.98 135.00599 209.92904
284 24 8 -0.31870000 52.919 135.54169 211.04137
285 24 9 -0.04600000 53.677 135.01693 209.95133
286 24 10 0.10880000 53.202 135.20112 208.98274
287 24 11 0.10880000 53.833 133.94552 210.1039
288 24 12 0.10880000 54.650999999999996 135.51711 209.94831
289 25 1 -0.31630000 51.0 136.0 224.0
290 25 2 -0.06950000 49.573 136.0 224.0
291 25 3 0.11730000 49.237 136.0 225.04201
292 25 4 0.11730000 49.213 136.56397 223.13526
293 25 5 0.11730000 49.153 134.98898 224.0
294 25 6 0.56780000 51.573 135.46783 222.89126
295 25 7 -0.49560000 50.98 135.00599 221.92904
296 25 8 -0.31870000 52.919 135.54169 223.04137
297 25 9 -0.04600000 53.677 135.01693 221.95133
298 25 10 0.10880000 53.202 135.20112 220.98274
299 25 11 0.10880000 53.833 133.94552 222.1039
300 25 12 0.10880000 54.650999999999996 135.51711 221.94831
301 26 1 -0.31630000 51.0 136.0 236.0
302 26 2 -0.06950000 49.573 136.0 236.0
303 26 3 0.11730000 49.237 136.0 237.04201
304 26 4 0.11730000 49.213 136.56397 235.13526
305 26 5 0.11730000 49.153 134.98898 236.0
306 26 6 0.56780000 51.573 135.46783 234.89126
307 26 7 -0.49560000 50.98 135.00599 233.92904
308 26 8 -0.31870000 52.919 135.54169 235.04137
309 26 9 -0.04600000 53.677 135.01693 233.95133
310 26 10 0.10880000 53.202 135.20112 232.98274
311 26 11 0.10880000 53.833 133.94552 234.1039
312 26 12 0.10880000 54.650999999999996 135.51711 233.94831
313 27 1 -0.31630000 51.0 136.0 248.0
314 27 2 -0.06950000 49.573 136.0 248.0
315 27 3 0.11730000 49.237 136.0 249.04201
316 27 4 0.11730000 49.213 136.56397 247.13526
317 27 5 0.11730000 49.153 134.98898 248.0
318 27 6 0.56780000 51.573 135.46783 246.89126
319 27 7 -0.49560000 50.98 135.00599 245.92904
320 27 8 -0.31870000 52.919 135.54169 247.04137
321 27 9 -0.04600000 53.677 135.01693 245.95133
322 27 10 0.10880000 53.202 135.20112 244.98274
323 27 11 0.10880000 53.833 133.94552 246.1039
324 27 12 0.10880000 54.650999999999996 135.51711 245.94831
325 28 1 -0.31630000 51.0 136.0 260.0
326 28 2 -0.06950000 49.573 136.0 260.0
327 28 3 0.11730000 49.237 136.0 261.04201
328 28 4 0.11730000 49.213 136.56397 259.13526
329 28 5 0.11730000 49.153 134.98898 260.0
330 28 6 0.56780000 51.573 135.46783 258.89126
331 28 7 -0.49560000 50.98 135.00599 257.92904
332 28 8 -0.31870000 52.919 135.54169 259.04137
333 28 9 -0.04600000 53.677 135.01693 257.95133
334 28 10 0.10880000 53.202 135.20112 256.98274
335 28 11 0.10880000 53.833 133.94552 258.1039
336 28 12 0.10880000 54.650999999999996 135.51711 257.94831
337 29 1 -0.31630000 51.0 151.0 104.0
338 29 2 -0.06950000 49.573 151.0 104.0
339 29 3 0.11730000 49.237 151.0 105.04201
340 29 4 0.11730000 49.213 151.56397 103.13526
341 29 5 0.11730000 49.153 149.98898 104.0
342 29 6 0.56780000 51.573 150.46783 102.89126
343 29 7 -0.49560000 50.98 150.00599 101.92904
344 29 8 -0.31870000 52.919 150.54169 103.04137
345 29 9 -0.04600000 53.677 150.01693 101.95133
346 29 10 0.10880000 53.202 150.20112 100.98274
347 29 11 0.10880000 53.833 148.94552 102.1039
348 29 12 0.10880000 54.650999999999996 150.51711 101.94831
349 30 1 -0.31630000 51.0 151.0 116.0
350 30 2 -0.06950000 49.573 151.0 116.0
351 30 3 0.11730000 49.237 151.0 117.04201
352 30 4 0.11730000 49.213 151.56397 115.13526
353 30 5 0.11730000 49.153 149.98898 116.0
354 30 6 0.56780000 51.573 150.46783 114.89126
355 30 7 -0.49560000 50.98 150.00599 113.92904
356 30 8 -0.31870000 52.919 150.54169 115.04137
357 30 9 -0.04600000 53.677 150.01693 113.95133
358 30 10 0.10880000 53.202 150.20112 112.98274
359 30 11 0.10880000 53.833 148.94552 114.1039
360 30 12 0.10880000 54.650999999999996 150.51711 113.94831
361 31 1 -0.31630000 51.0 151.0 128.0
362 31 2 -0.06950000 49.573 151.0 128.0
363 31 3 0.11730000 49.237 151.0 129.04201
364 31 4 0.11730000 49.213 151.56397 127.13526
365 31 5 0.11730000 49.153 149.98898 128.0
366 31 6 0.56780000 51.573 150.46783 126.89126
367 31 7 -0.49560000 50.98 150.00599 125.92904
368 31 8 -0.31870000 52.919 150.54169 127.04137
369 31 9 -0.04600000 53.677 150.01693 125.95133
370 31 10 0.10880000 53.202 150.20112 124.98274
371 31 11 0.10880000 53.833 148.94552 126.1039
372 31 12 0.10880000 54.650999999999996 150.51711 125.94831
373 32 1 -0.31630000 51.0 151.0 140.0
374 32 2 -0.06950000 49.573 151.0 140.0
375 32 3 0.11730000 49.237 151.0 141.04201
376 32 4 0.11730000 49.213 151.56397 139.13526
377 32 5 0.11730000 49.153 149.98898 140.0
378 32 6 0.56780000 51.573 150.46783 138.89126
379 32 7 -0.49560000 50.98 150.00599 137.92904
380 32 8 -0.31870000 52.919 150.54169 139.04137
381 32 9 -0.04600000 53.677 150.01693 137.95133
382 32 10 0.10880000 53.202 150.20112 136.98274
383 32 11 0.10880000 53.833 148.94552 138.1039
384 32 12 0.10880000 54.650999999999996 150.51711 137.94831
385 33 1 -0.31630000 51.0 151.0 152.0
386 33 2 -0.06950000 49.573 151.0 152.0
387 33 3 0.11730000 49.237 151.0 153.04201
388 33 4 0.11730000 49.213 151.56397 151.13526
389 33 5 0.11730000 49.153 149.98898 152.0
390 33 6 0.56780000 51.573 150.46783 150.89126
391 33 7 -0.49560000 50.98 150.00599 149.92904
392 33 8 -0.31870000 52.919 150.54169 151.04137
393 33 9 -0.04600000 53.677 150.01693 149.95133
394 33 10 0.10880000 53.202 150.20112 148.98274
395 33 11 0.10880000 53.833 148.94552 150.1039
396 33 12 0.10880000 54.650999999999996 150.51711 149.94831
397 34 1 -0.31630000 51.0 151.0 164.0
398 34 2 -0.06950000 49.573 151.0 164.0
399 34 3 0.11730000 49.237 151.0 165.04201
400 34 4 0.11730000 49.213 151.56397 163.13526
401 34 5 0.11730000 49.153 149.98898 164.0
402 34 6 0.56780000 51.573 150.46783 162.89126
403 34 7 -0.49560000 50.98 150.00599 161.92904
404 34 8 -0.31870000 52.919 150.54169 163.04137
405 34 9 -0.04600000 53.677 150.01693 161.95133
406 34 10 0.10880000 53.202 150.20112 160.98274
407 34 11 0.10880000 53.833 148.94552 162.1039
408 34 12 0.10880000 54.650999999999996 150.51711 161.94831
409 35 1 -0.31630000 51.0 151.0 176.0
410 35 2 -0.06950000 49.573 151.0 176.0
411 35 3 0.11730000 49.237 151.0 177.04201
412 35 4 0.11730000 49.213 151.56397 175.13526
413 35 5 0.11730000 49.153 149.98898 176.0
414 35 6 0.56780000 51.573 150.46783 174.89126
415 35 7 -0.49560000 50.98 150.00599 173.92904
416 35 8 -0.31870000 52.919 150.54169 175.04137
417 35 9 -0.04600000 53.677 150.01693 173.95133
418 35 10 0.10880000 53.202 150.20112 172.98274
419 35 11 0.10880000 53.833 148.94552 174.1039
420 35 12 0.10880000 54.650999999999996 150.51711 173.94831
421 36 1 -0.31630000 51.0 151.0 188.0
422 36 2 -0.06950000 49.573 151.0 188.0
423 36 3 0.11730000 49.237 151.0 189.04201
424 36 4 0.11730000 49.213 151.56397 187.13526
425 36 5 0.11730000 49.153 149.98898 188.0
426 36 6 0.56780000 51.573 150.46783 186.89126
427 36 7 -0.49560000 50.98 150.00599 185.92904
428 36 8 -0.31870000 52.919 150.54169 187.04137
429 36 9 -0.04600000 53.677 150.01693 185.95133
430 36 10 0.10880000 53.202 150.20112 184.98274
431 36 11 0.10880000 53.833 148.94552 186.1039
432 36 12 0.10880000 54.650999999999996 150.51711 185.94831
433 37 1 -0.31630000 51.0 151.0 200.0
434 37 2 -0.06950000 49.573 151.0 200.0
435 37 3 0.11730000 49.237 151.0 201.04201
436 37 4 0.11730000 49.213 151.56397 199.13526
437 37 5 0.11730000 49.153 149.98898 200.0
438 37 6 0.56780000 51.573 150.46783 198.89126
439 37 7 -0.49560000 50.98 150.00599 197.92904
440 37 8 -0.31870000 52.919 150.54169 199.04137
441 37 9 -0.04600000 53.677 150.01693 197.95133
442 37 10 0.10880000 53.202 150.20112 196.98274
443 37 11 0.10880000 53.833 148.94552 198.1039
444 37 12 0.10880000 54.650999999999996 150.51711 197.94831
445 38 1 -0.31630000 51.0 151.0 212.0
446 38 2 -0.06950000 49.573 151.0 212.0
447 38 3 0.11730000 49.237 151.0 213.04201
448 38 4 0.11730000 49.213 151.56397 211.13526
449 38 5 0.11730000 49.153 149.98898 212.0
450 38 6 0.56780000 51.573 150.46783 210.89126
451 38 7 -0.49560000 50.98 150.00599 209.92904
452 38 8 -0.31870000 52.919 150.54169 211.04137
453 38 9 -0.04600000 53.677 150.01693 209.95133
454 38 10 0.10880000 53.202 150.20112 208.98274
455 38 11 0.10880000 53.833 148.94552 210.1039
456 38 12 0.10880000 54.650999999999996 150.51711 209.94831
457 39 1 -0.31630000 51.0 151.0 224.0
458 39 2 -0.06950000 49.573 151.0 224.0
459 39 3 0.11730000 49.237 151.0 225.04201
460 39 4 0.11730000 49.213 151.56397 223.13526
461 39 5 0.11730000 49.153 149.98898 224.0
462 39 6 0.56780000 51.573 150.46783 222.89126
463 39 7 -0.49560000 50.98 150.00599 221.92904
464 39 8 -0.31870000 52.919 150.54169 223.04137
465 39 9 -0.04600000 53.677 150.01693 221.95133
466 39 10 0.10880000 53.202 150.20112 220.98274
467 39 11 0.10880000 53.833 148.94552 222.1039
468 39 12 0.10880000 54.650999999999996 150.51711 221.94831
469 40 1 -0.31630000 51.0 151.0 236.0
470 40 2 -0.06950000 49.573 151.0 236.0
471 40 3 0.11730000 49.237 151.0 237.04201
472 40 4 0.11730000 49.213 151.56397 235.13526
473 40 5 0.11730000 49.153 149.98898 236.0
474 40 6 0.56780000 51.573 150.46783 234.89126
475 40 7 -0.49560000 50.98 150.00599 233.92904
476 40 8 -0.31870000 52.919 150.54169 235.04137
477 40 9 -0.04600000 53.677 150.01693 233.95133
478 40 10 0.10880000 53.202 150.20112 232.98274
479 40 11 0.10880000 53.833 148.94552 234.1039
480 40 12 0.10880000 54.650999999999996 150.51711 233.94831
481 41 1 -0.31630000 51.0 151.0 248.0
482 41 2 -0.06950000 49.573 151.0 248.0
483 41 3 0.11730000 49.237 151.0 249.04201
484 41 4 0.11730000 49.213 151.56397 247.13526
485 41 5 0.11730000 49.153 149.98898 248.0
486 41 6 0.56780000 51.573 150.46783 246.89126
487 41 7 -0.49560000 50.98 150.00599 245.92904
488 41 8 -0.31870000 52.919 150.54169 247.04137
489 41 9 -0.04600000 53.677 150.01693 245.95133
490 41 10 0.10880000 53.202 150.20112 244.98274
491 41 11 0.10880000 53.833 148.94552 246.1039
492 41 12 0.10880000 54.650999999999996 150.51711 245.94831
493 42 1 -0.31630000 51.0 151.0 260.0
494 42 2 -0.06950000 49.573 151.0 260.0
495 42 3 0.11730000 49.237 151.0 261.04201
496 42 4 0.11730000 49.213 151.56397 259.13526
497 42 5 0.11730000 49.153 149.98898 260.0
498 42 6 0.56780000 51.573 150.46783 258.89126
499 42 7 -0.49560000 50.98 150.00599 257.92904
500 42 8 -0.31870000 52.919 150.54169 259.04137
501 42 9 -0.04600000 53.677 150.01693 257.95133
502 42 10 0.10880000 53.202 150.20112 256.98274
503 42 11 0.10880000 53.833 148.94552 258.1039
504 42 12 0.10880000 54.650999999999996 150.51711 257.94831
505 43 1 -0.31630000 51.0 166.0 104.0
506 43 2 -0.06950000 49.573 166.0 104.0
507 43 3 0.11730000 49.237 166.0 105.04201
508 43 4 0.11730000 49.213 166.56397 103.13526
509 43 5 0.11730000 49.153 164.98898 104.0
510 43 6 0.56780000 51.573 165.46783 102.89126
511 43 7 -0.49560000 50.98 165.00599 101.92904
512 43 8 -0.31870000 52.919 165.54169 103.04137
513 43 9 -0.04600000 53.677 165.01693 101.95133
514 43 10 0.10880000 53.202 165.20112 100.98274
515 43 11 0.10880000 53.833 163.94552 102.1039
516 43 12 0.10880000 54.650999999999996 165.51711 101.94831
517 44 1 -0.31630000 51.0 166.0 116.0
518 44 2 -0.06950000 49.573 166.0 116.0
519 44 3 0.11730000 49.237 166.0 117.04201
520 44 4 0.11730000 49.213 166.56397 115.13526
521 44 5 0.11730000 49.153 164.98898 116.0
522 44 6 0.56780000 51.573 165.46783 114.89126
523 44 7 -0.49560000 50.98 165.00599 113.92904
524 44 8 -0.31870000 52.919 165.54169 115.04137
525 44 9 -0.04600000 53.677 165.01693 113.95133
526 44 10 0.10880000 53.202 165.20112 112.98274
527 44 11 0.10880000 53.833 163.94552 114.1039
528 44 12 0.10880000 54.650999999999996 165.51711 113.94831
529 45 1 -0.31630000 51.0 166.0 128.0
530 45 2 -0.06950000 49.573 166.0 128.0
531 45 3 0.11730000 49.237 166.0 129.04201
532 45 4 0.11730000 49.213 166.56397 127.13526
533 45 5 0.11730000 49.153 164.98898 128.0
534 45 6 0.56780000 51.573 165.46783 126.89126
535 45 7 -0.49560000 50.98 165.00599 125.92904
536 45 8 -0.31870000 52.919 165.54169 127.04137
537 45 9 -0.04600000 53.677 165.01693 125.95133
538 45 10 0.10880000 53.202 165.20112 124.98274
539 45 11 0.10880000 53.833 163.94552 126.1039
540 45 12 0.10880000 54.650999999999996 165.51711 125.94831
541 46 1 -0.31630000 51.0 166.0 140.0
542 46 2 -0.06950000 49.573 166.0 140.0
543 46 3 0.11730000 49.237 166.0 141.04201
544 46 4 0.11730000 49.213 166.56397 139.13526
545 46 5 0.11730000 49.153 164.98898 140.0
546 46 6 0.56780000 51.573 165.46783 138.89126
547 46 7 -0.49560000 50.98 165.00599 137.92904
548 46 8 -0.31870000 52.919 165.54169 139.04137
549 46 9 -0.04600000 53.677 165.01693 137.95133
550 46 10 0.10880000 53.202 165.20112 136.98274
551 46 11 0.10880000 53.833 163.94552 138.1039
552 46 12 0.10880000 54.650999999999996 165.51711 137.94831
553 47 1 -0.31630000 51.0 166.0 152.0
554 47 2 -0.06950000 49.573 166.0 152.0
555 47 3 0.11730000 49.237 166.0 153.04201
556 47 4 0.11730000 49.213 166.56397 151.13526
557 47 5 0.11730000 49.153 164.98898 152.0
558 47 6 0.56780000 51.573 165.46783 150.89126
559 47 7 -0.49560000 50.98 165.00599 149.92904
560 47 8 -0.31870000 52.919 165.54169 151.04137
561 47 9 -0.04600000 53.677 165.01693 149.95133
562 47 10 0.10880000 53.202 165.20112 148.98274
563 47 11 0.10880000 53.833 163.94552 150.1039
564 47 12 0.10880000 54.650999999999996 165.51711 149.94831
565 48 1 -0.31630000 51.0 166.0 164.0
566 48 2 -0.06950000 49.573 166.0 164.0
567 48 3 0.11730000 49.237 166.0 165.04201
568 48 4 0.11730000 49.213 166.56397 163.13526
569 48 5 0.11730000 49.153 164.98898 164.0
570 48 6 0.56780000 51.573 165.46783 162.89126
571 48 7 -0.49560000 50.98 165.00599 161.92904
572 48 8 -0.31870000 52.919 165.54169 163.04137
573 48 9 -0.04600000 53.677 165.01693 161.95133
574 48 10 0.10880000 53.202 165.20112 160.98274
575 48 11 0.10880000 53.833 163.94552 162.1039
576 48 12 0.10880000 54.650999999999996 165.51711 161.94831
577 49 1 -0.31630000 51.0 166.0 176.0
578 49 2 -0.06950000 49.573 166.0 176.0
579 49 3 0.11730000 49.237 166.0 177.04201
580 49 4 0.11730000 49.213 166.56397 175.13526
581 49 5 0.11730000 49.153 164.98898 176.0
582 49 6 0.56780000 51.573 165.46783 174.89126
583 49 7 -0.49560000 50.98 165.00599 173.92904
584 49 8 -0.31870000 52.919 165.54169 175.04137
585 49 9 -0.04600000 53.677 165.01693 173.95133
586 49 10 0.10880000 53.202 165.20112 172.98274
587 49 11 0.10880000 53.833 163.94552 174.1039
588 49 12 0.10880000 54.650999999999996 165.51711 173.94831
589 50 1 -0.31630000 51.0 166.0 188.0
590 50 2 -0.06950000 49.573 166.0 188.0
591 50 3 0.11730000 49.237 166.0 189.04201
592 50 4 0.11730000 49.213 166.56397 187.13526
593 50 5 0.11730000 49.153 164.98898 188.0
594 50 6 0.56780000 51.573 165.46783 186.89126
595 50 7 -0.49560000 50.98 165.00599 185.92904
596 50 8 -0.31870000 52.919 165.54169 187.04137
597 50 9 -0.04600000 53.677 165.01693 185.95133
598 50 10 0.10880000 53.202 165.20112 184.98274
599 50 11 0.10880000 53.833 163.94552 186.1039
600 50 12 0.10880000 54.650999999999996 165.51711 185.94831
601 51 1 -0.31630000 51.0 166.0 200.0
602 51 2 -0.06950000 49.573 166.0 200.0
603 51 3 0.11730000 49.237 166.0 201.04201
604 51 4 0.11730000 49.213 166.56397 199.13526
605 51 5 0.11730000 49.153 164.98898 200.0
606 51 6 0.56780000 51.573 165.46783 198.89126
607 51 7 -0.49560000 50.98 165.00599 197.92904
608 51 8 -0.31870000 52.919 165.54169 199.04137
609 51 9 -0.04600000 53.677 165.01693 197.95133
610 51 10 0.10880000 53.202 165.20112 196.98274
611 51 11 0.10880000 53.833 163.94552 198.1039
612 51 12 0.10880000 54.650999999999996 165.51711 197.94831
613 52 1 -0.31630000 51.0 166.0 212.0
614 52 2 -0.06950000 49.573 166.0 212.0
615 52 3 0.11730000 49.237 166.0 213.04201
616 52 4 0.11730000 49.213 166.56397 211.13526
617 52 5 0.11730000 49.153 164.98898 212.0
618 52 6 0.56780000 51.573 165.46783 210.89126
619 52 7 -0.49560000 50.98 165.00599 209.92904
620 52 8 -0.31870000 52.919 165.54169 211.04137
621 52 9 -0.04600000 53.677 165.01693 209.95133
622 52 10 0.10880000 53.202 165.20112 208.98274
623 52 11 0.10880000 53.833 163.94552 210.1039
624 52 12 0.10880000 54.650999999999996 165.51711 209.94831
625 53 1 -0.31630000 51.0 166.0 224.0
626 53 2 -0.06950000 49.573 166.0 224.0
627 53 3 0.11730000 49.237 166.0 225.04201
628 53 4 0.11730000 49.213 166.56397 223.13526
629 53 5 0.11730000 49.153 164.98898 224.0
630 53 6 0.56780000 51.573 165.46783 222.89126
631 53 7 -0.49560000 50.98 165.00599 221.92904
632 53 8 -0.31870000 52.919 165.54169 223.04137
633 53 9 -0.04600000 53.677 165.01693 221.95133
634 53 10 0.10880000 53.202 165.20112 220.98274
635 53 11 0.10880000 53.833 163.94552 222.1039
636 53 12 0.10880000 54.650999999999996 165.51711 221.94831
637 54 1 -0.31630000 51.0 166.0 236.0
638 54 2 -0.06950000 49.573 166.0 236.0
639 54 3 0.11730000 49.237 166.0 237.04201